<?xml version="1.0"?>
<VTKFile type="PolyData" version="0.1" byte_order="LittleEndian" header_type="UInt32" compressor="vtkZLibDataCompressor">
  <PolyData>
    <Piece NumberOfPoints="154" NumberOfVerts="0" NumberOfLines="0" NumberOfStrips="0" NumberOfPolys="0">
      <PointData>
        <DataArray type="Int32" Name="id" format="ascii" RangeMin="0" RangeMax="153">
          0 1 2 3 4 5
          6 7 8 9 10 11
          12 13 14 15 16 17
          18 19 20 21 22 23
          24 25 26 27 28 29
          30 31 32 33 34 35
          36 37 38 39 40 41
          42 43 44 45 46 47
          48 49 50 51 52 53
          54 55 56 57 58 59
          60 61 62 63 64 65
          66 67 68 69 70 71
          72 73 74 75 76 77
          78 79 80 81 82 83
          84 85 86 87 88 89
          90 91 92 93 94 95
          96 97 98 99 100 101
          102 103 104 105 106 107
          108 109 110 111 112 113
          114 115 116 117 118 119
          120 121 122 123 124 125
          126 127 128 129 130 131
          132 133 134 135 136 137
          138 139 140 141 142 143
          144 145 146 147 148 149
          150 151 152 153
        </DataArray>
        <DataArray type="Float64" Name="director" NumberOfComponents="3" format="ascii" RangeMin="0.9999999999999999" RangeMax="1">
          -0.8074806803390064 -0.5898940166498177 0 0.1490856866040178 -0.9888242806736739 0
          -0.294529551338289 -0.9556423721186007 0 -0.0397243868974436 0.9992106750258537 0
          -0.30843797257230987 0.9512444570537497 0 0.8803817248991327 0.474265767754355 0
          0.9999620452968446 -0.008712517761891976 0 0.8802487239751557 0.4745125751127256 0
          0.8815808683210472 0.4720330206779059 0 -0.4301774568070219 -0.9027443467865323 0
          -0.816094568282753 0.5779183814513837 0 -0.9936827184482345 -0.11222591081085839 0
          0.12666670172478528 -0.9919453345190774 0 -0.14100588804550374 0.9900087573029336 0
          0.8345343246038031 0.5509559520125673 0 0.9605373439639301 0.27815105761208003 0
          -0.8058551118853232 -0.5921127752787413 0 -0.8937594715693729 0.44854654940154803 0
          0.7963398085509834 -0.604849493111289 0 -0.9693072543468808 -0.24585248965693102 0
          0.8377227479221119 0.5460957769602561 0 0.8502973073135431 -0.5263026592896315 0
          -0.6492797917889066 -0.7605496380740405 0 0.7385201083781882 0.6742314510025984 0
          -0.9275555067515755 -0.37368540497968084 0 -0.555188636047306 0.8317244606261932 0
          0.9557908588013047 -0.2940473333187441 0 0.9995858982164969 -0.028775546679761302 0
          -0.899643430331699 -0.4366253522884504 0 -0.10424540830732212 -0.9945516049189402 0
          0.581042424063383 0.8138732711169152 0 -0.9962448887829336 0.08658014537918124 0
          -0.9688271719886736 0.24773758458584547 0 0.0839307065042892 0.996471593426371 0
          0.9108671655227424 -0.41269965686024623 0 0.41069087210313737 0.9117746473614873 0
          0.3723344019492203 0.9280986440702931 0 -0.15679126717830216 -0.9876317626203717 0
          -0.9998013382081606 0.01993198728604687 0 0.9497917980525669 -0.3128826303137841 0
          -0.02124820889205067 0.9997742313236923 0 0.5867581570730966 -0.8097622275138445 0
          0.623733239414761 -0.7816372854778413 0 -0.9994842669301477 0.03211230541560956 0
          0.16112299328963173 0.9869343347119854 0 -0.5711913836427693 0.820816912138303 0
          0.7868324460759804 -0.6171666726274917 0 -0.6241889429695842 0.7812734242725227 0
          -0.4389880348971158 -0.8984929077166768 0 -0.9558168286299388 0.29396290600653396 0
          0.5447453020483627 -0.8386015477544971 0 0.7610138592769278 -0.6487356210263441 0
          0.8023045008887376 -0.5969149753973958 0 0.20561429663008776 0.9786331084841317 0
          -0.4855219088619602 0.8742244997796839 0 -0.9657078567663718 0.2596311525601286 0
          -0.8768342291990386 -0.48079281869109464 0 0.5080767571942872 0.8613117953441352 0
          -0.4620777983407104 -0.8868393926075915 0 0.7229874712042245 -0.690861141244549 0
          -0.5097365178953904 -0.8603305657268503 0 -0.7083955363763318 -0.7058156728509853 0
          -0.6497237400141178 -0.7601704161976228 0 0.8183416058620568 -0.5747321255290242 0
          0.827613748454201 -0.5612980343539309 0 -0.9912362156968714 -0.13210134250243447 0
          0.951359540107688 -0.30808282238074963 0 -0.8490591625966627 -0.5282977743760179 0
          -0.885992444012288 0.4636996756017117 0 0.9655573497879291 -0.2601903231684662 0
          -0.0037137575638351242 0.999993103978601 0 0.18883932744500148 0.9820079981395872 0
          0.10412153617053045 0.9945645809626888 0 0.5838935208458808 0.8118302509233079 0
          -0.2055759377793645 -0.9786411670301505 0 -0.9600894555440953 -0.27969311280945536 0
          -0.9397270151916193 -0.34192563068458337 0 0.8885995908661886 -0.45868373321106803 0
          -0.4294256372373914 0.9031022212813233 0 0.44441599934860915 -0.8958205286344899 0
          -0.7624097698384732 0.6470945393486537 0 0.8320680748233011 -0.5546735245708464 0
          -0.3020139948125499 -0.9533034915164033 0 -0.9759032886096249 -0.21820350886481868 0
          -0.9445833738818211 -0.32827160977768965 0 0.4558568823253559 0.8900530898977917 0
          -0.8908015151304309 -0.454392628286737 0 0.49090761123334786 -0.8712116374527881 0
          0.7070956438124687 -0.7071179183852085 0 -0.35985801679822577 0.9330070780792865 0
          -0.39183474436760496 -0.9200356151293132 0 -0.8020105994176532 -0.5973098010427559 0
          -0.9387967002072678 -0.3444717051949917 0 0.16209702476068752 -0.986774824650352 0
          0.2513238279995505 0.9679030599598559 0 0.9999870083582477 0.005097363506932829 0
          -0.8152593723802057 0.5790959814626874 0 0.8268953355825583 -0.5623558517449678 0
          -0.8925374931307669 -0.4509731958285839 0 0.7335953599145105 -0.6795865271706758 0
          -0.5714163021214311 0.8206603497610137 0 0.6213587063319403 -0.7835262331699543 0
          -0.663102469980276 -0.748528632923322 0 0.8945895592807223 -0.4468887114550143 0
          -0.7048745230236036 0.7093320144983217 0 -0.9954074576586585 0.09572874822918219 0
          0.9699809009112281 0.24318110919115876 0 0.7840439324386451 -0.6207053342820128 0
          0.4372441896091682 -0.8993428259862986 0 -0.9593953512214125 -0.2820648153434641 0
          -0.5878073184432887 0.8090009619181612 0 -0.43836624072258185 -0.8987964391311035 0
          0.4891007757262376 -0.8722272818388522 0 0.9031257370176877 -0.42937617905079256 0
          0.44318984432697545 -0.8964277783990361 0 0.027204860872966342 -0.9996298792777668 0
          -0.7460522237196688 -0.6658874375470206 0 -0.8553941143108411 -0.5179777111057692 0
          -0.9523300592397159 0.3050695957785356 0 0.19050516729347008 -0.9816861928510999 0
          0.8887875982982819 0.45831932657392027 0 0.60159808391654 -0.7987989393007152 0
          0.4323462052076728 -0.9017076903534342 0 -0.11637957698445545 0.993204809725023 0
          0.6511900182448205 -0.7589147252085114 0 -0.3938757796811284 -0.9191636797549081 0
          -0.9963717013871012 -0.08510835843190245 0 0.7985620172340833 -0.6019125390212698 0
          -0.8569599596285289 0.5153829911759509 0 -0.9901268425373102 0.1401743046606495 0
          0.2777038610568945 0.9606667297008329 0 0.5756042791325522 0.8177283863510517 0
          0.7222021684214541 0.6916820280499917 0 -0.9278050831183924 0.37306531296768 0
          -0.7461432766826819 0.6657854088677754 0 -0.9881722822212734 -0.15334777680031764 0
          0.17117332891619036 0.985240930670133 0 0.8420079706227133 0.5394650845122602 0
          -0.9299705204362595 -0.3676340995058983 0 0.6326653202971307 0.774425330482758 0
          0.24291454159394787 -0.9700476923750719 0 0.977642504260048 -0.21027394956138074 0
          -0.9414866235492383 0.3370503488766254 0 0.9368129811964577 0.34983058508627485 0
          0.9990128732540225 0.04442160592259509 0 -0.6864616577152963 -0.7271660006399965 0
          0.23779397659636525 0.9713156153869283 0 -0.8945673510374398 0.4469331655380456 0
          -0.8137715766115342 0.5811848424547718 0 0.640934595675197 0.7675954950797144 0
          0.5260756732791995 -0.8504377613816528 0 0.4715932342269873 0.8818162061514462 0
          0.5506787561611357 0.8347172620191968 0 0.21496758403364163 -0.9766211843978909 0
          <InformationKey name="L2_NORM_RANGE" location="vtkDataArray" length="2">
            <Value index="0">
              1
            </Value>
            <Value index="1">
              1
            </Value>
          </InformationKey>
        </DataArray>
        <DataArray type="Float64" Name="velocity" NumberOfComponents="3" format="ascii" RangeMin="2.98391528750295" RangeMax="65.61664053985334">
          20.472372037415383 -30.489259884928693 0 -7.778161120144524 43.605506408926914 0
          -35.778279556590725 14.318100471258902 0 -2.7267860528004704 -6.306708942777526 0
          -25.56803597993237 0.5919415230237348 0 40.69440930810454 -42.34960265147567 0
          21.390392053252754 11.720491675449018 0 -31.091580543867785 -10.301819378431787 0
          -22.233594277397 35.80993014386058 0 40.8936574712134 11.727908496204755 0
          -31.918129728714472 1.502371966558826 0 32.46317064138093 -14.067556233339687 0
          31.61170207931397 -20.66117562390716 0 -32.788218903188394 -0.7210412736466054 0
          -30.467523066969363 36.43074923190564 0 -29.58028331655805 11.627227611362315 0
          37.80505508071815 -10.753091333426255 0 44.65772551607054 -33.330173144632525 0
          47.18774005931614 6.396489460552942 0 9.836891189866492 -36.87781496106794 0
          6.677739541459459 5.438027088135769 0 -18.951003944933063 -37.93510690561732 0
          23.77908201111339 -25.727634747998636 0 32.285914726045576 -31.45240287607238 0
          -18.732306147503376 38.172541468590836 0 17.42129460906331 23.929755673071398 0
          -43.74567596165927 -36.843843838172035 0 -41.00470913383489 -49.1685554695042 0
          -4.3489588147394045 13.430332075080756 0 2.9762992276979077 -0.21305715242312573 0
          -16.420210149222868 -24.717665071237764 0 -26.63245586108499 -32.68369682188443 0
          9.59810303037343 22.68931438280859 0 37.757309281314306 20.71597266757422 0
          -26.523439665569285 -2.200425364398683 0 -48.17882370239545 24.733119867345934 0
          15.472358145094617 -42.19330576503555 0 -2.7230899171649696 49.647506705142575 0
          3.209752212846098 39.943600631846664 0 27.290092728339346 -29.624030405099575 0
          40.710862227344634 -12.518743865476708 0 34.808888796398136 -17.330075407408792 0
          -17.326333983387784 15.921061981020685 0 8.676498234140595 -45.101679767889145 0
          26.99656655139428 -0.8247828969564566 0 -1.181598492863479 -7.087342925864128 0
          -10.527228461045638 27.645380145270124 0 47.47543864880045 24.850515939083976 0
          13.45020038299144 -42.781974126121774 0 13.33632968921519 2.89206325620421 0
          -20.383234879262602 -17.467213088655853 0 13.111992425538233 49.45054225750374 0
          1.6047826830209004 22.445391370448775 0 -25.442525168919026 -16.766088433362327 0
          24.860911549332883 18.296648546241826 0 18.127137052491975 -42.11576276898946 0
          -4.106371249565804 19.81468592825003 0 -43.2115168522386 -43.085994704941484 0
          2.7042817825837204 -23.795120132132308 0 -1.6624837545658195 -36.91945356486498 0
          -40.55592314206473 -37.96183180819797 0 46.98372058379586 25.62816454897687 0
          -23.182362140209666 22.4905983535036 0 -8.42374893276238 -2.5281598168396826 0
          -44.45585735866184 11.374414308737222 0 -0.9380815156004232 40.44748670579848 0
          43.5214270198436 41.82766196839604 0 -19.617472876146607 29.010177679462174 0
          -27.377259211045168 -5.104813753149479 0 1.0108912986547693 -26.93680745999526 0
          21.18807799653547 48.4452609761332 0 15.521324819791857 -22.733301715898534 0
          -3.0984436752635744 -49.699879474370995 0 -5.357606698271908 47.09441502974741 0
          -19.533649987483585 -28.48909553641595 0 -25.241492794096537 30.645102659141713 0
          -1.3628901407151872 -9.249808436218693 0 -28.437070584076316 4.0252086974848424 0
          22.302423751473526 -21.630608392707323 0 4.286209731170565 25.592468486596516 0
          -16.80227135673981 30.176297340482108 0 35.70724318896097 -48.51082997011254 0
          38.494266527440914 9.308694076898924 0 -41.37827709570729 42.48759424258512 0
          41.371957205314274 48.07567751376408 0 40.00221093710812 44.971458396046486 0
          43.45219546574209 -49.16757290067578 0 27.77940311086799 -47.40411222574361 0
          8.787704962513757 14.978077069606684 0 -17.176354508003442 -38.89206379839693 0
          -37.572734230027905 47.39150589914381 0 3.322947059262674 16.230028184641725 0
          20.82576325094061 -43.12614201683975 0 -29.404442159877867 -6.6570323329381935 0
          -48.88074135310182 -43.07374742736768 0 -15.693819004659524 -18.776991949103287 0
          49.2742614956165 -23.093566379026992 0 35.70662412955289 -14.438908494432013 0
          24.676827977366614 34.48562696853686 0 -28.28613766609157 46.49521791482232 0
          21.219265309149932 48.266786794162286 0 25.989900495501132 -30.673962513745963 0
          -14.741048879365302 -30.369965831724773 0 33.206792723445574 45.25947670903301 0
          26.73700517552618 36.1968809297727 0 -4.433626259916984 -16.731616061562868 0
          33.82599634129042 5.430878965379037 0 -37.91344272052366 -28.781627030961573 0
          -0.8760744559602713 -9.034520229977083 0 25.951148963832622 -14.29357740625877 0
          27.17860558051683 48.15404052238152 0 34.61617221348607 33.462162550860555 0
          -13.28055184508198 -44.93740558320786 0 47.55616001461492 34.25892934866374 0
          36.946038841117556 -42.45015674570037 0 -46.76239316488481 11.393180618063838 0
          23.568028568935404 11.552780427737098 0 16.263007945057282 45.12644264060411 0
          -23.411248530157515 41.93857265065735 0 -38.160345232049345 -18.69342940760771 0
          37.21153998486223 -26.635630373860984 0 30.80584946405935 5.653176675427417 0
          44.35923105765637 0.370346282237378 0 16.64168251311186 -34.7034267378138 0
          47.322877480901255 13.376690736606477 0 -32.1350217035443 -42.58571958176201 0
          -0.5025219679409361 28.59799073613067 0 -3.5320261053794297 38.30316610148137 0
          14.736889949280638 40.32409694969634 0 -49.402638529229115 19.356180838194604 0
          8.508964450503598 -39.46387075781778 0 49.03198966734128 -27.000797471280585 0
          -16.70921662991016 18.938285128010065 0 46.14207459237997 -27.3400906744995 0
          42.424140585792586 37.62461911345025 0 -6.825547086494495 -2.911259141055119 0
          6.210247997996007 33.76154121673389 0 -35.16911208657487 13.927818279591207 0
          49.5593687100304 13.93941034113417 0 -6.0481675260535965 -47.161165000275155 0
          -41.68490984500472 3.0367185203014984 0 28.200151364646487 23.664522522360798 0
          -30.983903256438072 -23.817273645282434 0 -4.775523168997552 -3.9973115200368454 0
          17.36371431475763 -32.304692769073746 0 -31.21691646176371 -40.35131875297581 0
          -17.61253928181918 -32.96735050248542 0 -47.52659271635095 33.064298464373394 0
          -25.51716157275273 -35.79649925661745 0 -34.4558032257712 -19.698927528483058 0
          -46.64276824331557 -9.071061809886274 0 28.312364537561464 -5.662808823633235 0
          -48.25117889494449 -21.421563451189467 0 45.139670111270334 -32.86849758057289 0
          <InformationKey name="L2_NORM_RANGE" location="vtkDataArray" length="2">
            <Value index="0">
              2.9839152875
            </Value>
            <Value index="1">
              65.61664054
            </Value>
          </InformationKey>
        </DataArray>
        <DataArray type="Float64" Name="force" NumberOfComponents="3" format="ascii" RangeMin="0.49999999999999994" RangeMax="0.5">
          -0.4037403401695032 -0.29494700832490883 0 0.0745428433020089 -0.49441214033683695 0
          -0.1472647756691445 -0.47782118605930035 0 -0.0198621934487218 0.49960533751292685 0
          -0.15421898628615494 0.47562222852687486 0 0.44019086244956634 0.2371328838771775 0
          0.4999810226484223 -0.004356258880945988 0 0.4401243619875779 0.2372562875563628 0
          0.4407904341605236 0.23601651033895296 0 -0.21508872840351095 -0.45137217339326613 0
          -0.4080472841413765 0.2889591907256919 0 -0.49684135922411726 -0.056112955405429196 0
          0.06333335086239264 -0.4959726672595387 0 -0.07050294402275187 0.4950043786514668 0
          0.41726716230190153 0.27547797600628365 0 0.48026867198196505 0.13907552880604002 0
          -0.4029275559426616 -0.29605638763937064 0 -0.4468797357846864 0.22427327470077402 0
          0.3981699042754917 -0.3024247465556445 0 -0.4846536271734404 -0.12292624482846551 0
          0.41886137396105594 0.27304788848012806 0 0.42514865365677157 -0.26315132964481575 0
          -0.3246398958944533 -0.38027481903702026 0 0.3692600541890941 0.3371157255012992 0
          -0.46377775337578775 -0.18684270248984042 0 -0.277594318023653 0.4158622303130966 0
          0.4778954294006523 -0.14702366665937205 0 0.49979294910824845 -0.014387773339880651 0
          -0.4498217151658495 -0.2183126761442252 0 -0.05212270415366106 -0.4972758024594701 0
          0.2905212120316915 0.4069366355584576 0 -0.4981224443914668 0.04329007268959062 0
          -0.4844135859943368 0.12386879229292273 0 0.0419653532521446 0.4982357967131855 0
          0.4554335827613712 -0.20634982843012312 0 0.20534543605156869 0.45588732368074364 0
          0.18616720097461015 0.46404932203514654 0 -0.07839563358915108 -0.49381588131018583 0
          -0.4999006691040803 0.009965993643023434 0 0.47489589902628343 -0.15644131515689205 0
          -0.010624104446025335 0.4998871156618461 0 0.2933790785365483 -0.40488111375692226 0
          0.3118666197073805 -0.39081864273892064 0 -0.49974213346507385 0.01605615270780478 0
          0.08056149664481586 0.4934671673559927 0 -0.28559569182138467 0.4104084560691515 0
          0.3934162230379902 -0.30858333631374585 0 -0.3120944714847921 0.39063671213626133 0
          -0.2194940174485579 -0.4492464538583384 0 -0.4779084143149694 0.14698145300326698 0
          0.27237265102418134 -0.41930077387724857 0 0.3805069296384639 -0.32436781051317204 0
          0.4011522504443688 -0.2984574876986979 0 0.10280714831504388 0.4893165542420658 0
          -0.2427609544309801 0.43711224988984193 0 -0.4828539283831859 0.1298155762800643 0
          -0.4384171145995193 -0.24039640934554732 0 0.2540383785971436 0.4306558976720676 0
          -0.2310388991703552 -0.44341969630379574 0 0.36149373560211223 -0.3454305706222745 0
          -0.2548682589476952 -0.43016528286342515 0 -0.3541977681881659 -0.35290783642549267 0
          -0.3248618700070589 -0.3800852080988114 0 0.4091708029310284 -0.2873660627645121 0
          0.4138068742271005 -0.28064901717696544 0 -0.4956181078484357 -0.06605067125121723 0
          0.475679770053844 -0.15404141119037482 0 -0.42452958129833135 -0.26414888718800894 0
          -0.442996222006144 0.23184983780085586 0 0.48277867489396453 -0.1300951615842331 0
          -0.0018568787819175621 0.4999965519893005 0 0.09441966372250074 0.4910039990697936 0
          0.052060768085265226 0.4972822904813444 0 0.2919467604229404 0.4059151254616539 0
          -0.10278796888968225 -0.48932058351507524 0 -0.48004472777204765 -0.13984655640472768 0
          -0.46986350759580964 -0.17096281534229169 0 0.4442997954330943 -0.22934186660553402 0
          -0.2147128186186957 0.45155111064066167 0 0.22220799967430457 -0.44791026431724495 0
          -0.3812048849192366 0.32354726967432684 0 0.41603403741165057 -0.2773367622854232 0
          -0.15100699740627496 -0.47665174575820163 0 -0.48795164430481247 -0.10910175443240934 0
          -0.47229168694091056 -0.16413580488884483 0 0.22792844116267796 0.4450265449488959 0
          -0.44540075756521547 -0.2271963141433685 0 0.24545380561667393 -0.43560581872639403 0
          0.35354782190623435 -0.35355895919260427 0 -0.17992900839911288 0.46650353903964326 0
          -0.19591737218380248 -0.4600178075646566 0 -0.4010052997088266 -0.29865490052137794 0
          -0.4693983501036339 -0.17223585259749585 0 0.08104851238034376 -0.493387412325176 0
          0.12566191399977525 0.48395152997992796 0 0.49999350417912386 0.0025486817534664144 0
          -0.40762968619010287 0.2895479907313437 0 0.41344766779127917 -0.2811779258724839 0
          -0.44626874656538346 -0.22548659791429196 0 0.36679767995725526 -0.3397932635853379 0
          -0.28570815106071556 0.4103301748805068 0 0.3106793531659702 -0.39176311658497714 0
          -0.331551234990138 -0.374264316461661 0 0.44729477964036113 -0.22344435572750715 0
          -0.3524372615118018 0.35466600724916086 0 -0.49770372882932923 0.047864374114591095 0
          0.48499045045561406 0.12159055459557938 0 0.39202196621932256 -0.3103526671410064 0
          0.2186220948045841 -0.4496714129931493 0 -0.47969767561070625 -0.14103240767173206 0
          -0.29390365922164435 0.4045004809590806 0 -0.21918312036129092 -0.44939821956555176 0
          0.2445503878631188 -0.4361136409194261 0 0.45156286850884386 -0.21468808952539628 0
          0.22159492216348772 -0.44821388919951805 0 0.013602430436483171 -0.4998149396388834 0
          -0.3730261118598344 -0.3329437187735103 0 -0.42769705715542056 -0.2589888555528846 0
          -0.47616502961985796 0.1525347978892678 0 0.09525258364673504 -0.49084309642554996 0
          0.44439379914914096 0.22915966328696014 0 0.30079904195827 -0.3993994696503576 0
          0.2161731026038364 -0.4508538451767171 0 -0.05818978849222772 0.4966024048625115 0
          0.32559500912241024 -0.3794573626042557 0 -0.1969378898405642 -0.45958183987745405 0
          -0.4981858506935506 -0.04255417921595123 0 0.39928100861704163 -0.3009562695106349 0
          -0.42847997981426444 0.25769149558797544 0 -0.4950634212686551 0.07008715233032475 0
          0.13885193052844724 0.48033336485041644 0 0.2878021395662761 0.40886419317552586 0
          0.36110108421072706 0.34584101402499584 0 -0.4639025415591962 0.18653265648384 0
          -0.37307163834134094 0.3328927044338877 0 -0.4940861411106367 -0.07667388840015882 0
          0.08558666445809518 0.4926204653350665 0 0.42100398531135663 0.2697325422561301 0
          -0.46498526021812975 -0.18381704975294916 0 0.31633266014856537 0.387212665241379 0
          0.12145727079697394 -0.48502384618753597 0 0.488821252130024 -0.10513697478069037 0
          -0.47074331177461914 0.1685251744383127 0 0.46840649059822886 0.17491529254313742 0
          0.4995064366270113 0.022210802961297543 0 -0.34323082885764816 -0.36358300031999824 0
          0.11889698829818263 0.48565780769346417 0 -0.4472836755187199 0.2234665827690228 0
          -0.4068857883057671 0.2905924212273859 0 0.3204672978375985 0.3837977475398572 0
          0.26303783663959973 -0.4252188806908264 0 0.23579661711349365 0.4409081030757231 0
          0.27533937808056785 0.4173586310095984 0 0.10748379201682082 -0.48831059219894546 0
          <InformationKey name="L2_NORM_RANGE" location="vtkDataArray" length="2">
            <Value index="0">
              0.5
            </Value>
            <Value index="1">
              0.5
            </Value>
          </InformationKey>
        </DataArray>
        <DataArray type="Float64" Name="radius" format="ascii" RangeMin="1" RangeMax="1">
          1 1 1 1 1 1
          1 1 1 1 1 1
          1 1 1 1 1 1
          1 1 1 1 1 1
          1 1 1 1 1 1
          1 1 1 1 1 1
          1 1 1 1 1 1
          1 1 1 1 1 1
          1 1 1 1 1 1
          1 1 1 1 1 1
          1 1 1 1 1 1
          1 1 1 1 1 1
          1 1 1 1 1 1
          1 1 1 1 1 1
          1 1 1 1 1 1
          1 1 1 1 1 1
          1 1 1 1 1 1
          1 1 1 1 1 1
          1 1 1 1 1 1
          1 1 1 1 1 1
          1 1 1 1 1 1
          1 1 1 1 1 1
          1 1 1 1 1 1
          1 1 1 1 1 1
          1 1 1 1 1 1
          1 1 1 1
        </DataArray>
      </PointData>
      <CellData>
      </CellData>
      <Points>
        <DataArray type="Float32" Name="Points" NumberOfComponents="3" format="ascii" RangeMin="1.8272338702651865" RangeMax="68.23386013295948">
          -36.439048767089844 33.53079605102539 0 46.92084884643555 -27.87238121032715 0
          -19.213245391845703 4.7020721435546875 0 -31.111146926879883 49.25246810913086 0
          49.6968879699707 46.755523681640625 0 22.642831802368164 48.1316032409668 0
          -38.96286392211914 29.803049087524414 0 -20.28178596496582 -49.49810791015625 0
          -38.697418212890625 13.943962097167969 0 37.83856201171875 0.3378789722919464 0
          29.74842643737793 -13.840645790100098 0 -28.86292266845703 18.117338180541992 0
          -10.10830307006836 23.992876052856445 0 -2.594041585922241 -7.7783918380737305 0
          -32.63154602050781 -19.823265075683594 0 29.757936477661133 -18.354001998901367 0
          37.310028076171875 -35.1489372253418 0 49.44667434692383 32.1357307434082 0
          -37.481292724609375 26.399208068847656 0 -0.9847356081008911 16.389068603515625 0
          -37.47198486328125 -28.995336532592773 0 -44.969608306884766 -46.40856170654297 0
          -9.127492904663086 -4.2225141525268555 0 -1.2486002445220947 29.360939025878906 0
          42.09209060668945 30.725021362304688 0 20.599607467651367 -49.77376174926758 0
          21.016244888305664 14.419708251953125 0 -4.3411865234375 27.39703369140625 0
          7.3748393058776855 37.58060073852539 0 30.823627471923828 -48.230838775634766 0
          32.16609191894531 32.07030487060547 0 44.02900314331055 -8.76430606842041 0
          -7.720663070678711 8.134866714477539 0 -34.228145599365234 26.22749900817871 0
          -26.921077728271484 31.01749610900879 0 48.821372985839844 -16.71442413330078 0
          -20.00829315185547 -48.672386169433594 0 -28.233591079711914 40.753028869628906 0
          34.97562789916992 45.52627182006836 0 27.957874298095703 48.73311233520508 0
          -43.1660041809082 29.3673095703125 0 9.404290199279785 23.32486915588379 0
          19.51336669921875 17.90892791748047 0 -10.810242652893066 6.169777870178223 0
          -29.248441696166992 2.7485437393188477 0 -9.548690795898438 -14.64820384979248 0
          9.300135612487793 -14.285767555236816 0 46.524715423583984 -34.56396484375 0
          -10.511667251586914 -11.36203384399414 0 22.753618240356445 -11.126801490783691 0
          42.7035026550293 -6.420619964599609 0 36.268348693847656 11.988587379455566 0
          -37.98033905029297 -2.7383692264556885 0 -16.037235260009766 3.0234034061431885 0
          21.660425186157227 48.86469268798828 0 22.030542373657227 41.21854782104492 0
          0.49850061535835266 5.809170722961426 0 0.3553338646888733 -3.7207937240600586 0
          4.660876274108887 -5.2391037940979 0 35.446781158447266 10.36438274383545 0
          -0.11187577247619629 48.022396087646484 0 -46.58932876586914 47.6894416809082 0
          -13.740883827209473 17.861154556274414 0 -15.333035469055176 35.60382843017578 0
          -45.50813674926758 16.068857192993164 0 24.953929901123047 -36.726043701171875 0
          48.21324157714844 -40.46406173706055 0 -21.832170486450195 30.218732833862305 0
          -42.259552001953125 12.788762092590332 0 -49.23810958862305 17.95986557006836 0
          3.3559224605560303 -6.166985511779785 0 -30.057836532592773 -36.20551681518555 0
          -11.747096061706543 26.267364501953125 0 -45.9483528137207 -24.718917846679688 0
          0.39976826310157776 32.35004425048828 0 48.1663932800293 32.322898864746094 0
          -19.794971466064453 -45.253997802734375 0 -25.193927764892578 4.33323860168457 0
          38.774662017822266 -15.674982070922852 0 -46.571372985839844 -33.72487258911133 0
          37.6944580078125 -28.909038543701172 0 -22.762041091918945 -0.7520456314086914 0
          -27.64213752746582 -0.9619898200035095 0 45.524478912353516 15.207426071166992 0
          25.77495765686035 -6.534540176391602 0 5.265398025512695 -44.65249252319336 0
          -17.708084106445312 -9.513768196105957 0 40.819488525390625 30.908605575561523 0
          -24.170940399169922 -37.04252243041992 0 -0.6531891822814941 -12.167882919311523 0
          21.827556610107422 -21.226978302001953 0 12.285161018371582 31.1938533782959 0
          -18.75925636291504 -11.415781021118164 0 -15.590242385864258 31.555763244628906 0
          16.937841415405273 -12.047426223754883 0 -4.085778713226318 -19.663066864013672 0
          41.020530700683594 -1.1672708988189697 0 25.55414390563965 -39.20021057128906 0
          -10.661432266235352 37.02671813964844 0 -13.905608177185059 41.67190933227539 0
          4.3349080085754395 -36.01774978637695 0 -30.002872467041016 44.89482879638672 0
          49.04594802856445 -26.056781768798828 0 -48.32913589477539 -11.144359588623047 0
          28.0523681640625 -2.2683050632476807 0 4.024951457977295 -48.1600227355957 0
          40.03874206542969 -30.526981353759766 0 38.63777160644531 -5.882491588592529 0
          -35.18311309814453 -26.017780303955078 0 29.97684669494629 -2.708127975463867 0
          -41.041015625 14.391523361206055 0 13.287004470825195 8.493560791015625 0
          22.66349983215332 -14.548519134521484 0 18.10232925415039 20.782398223876953 0
          -33.69123458862305 -36.707618713378906 0 -4.982172012329102 -45.816837310791016 0
          29.69977569580078 -33.18376541137695 0 33.1865348815918 -17.452234268188477 0
          15.619266510009766 -8.014620780944824 0 28.14103889465332 -38.75718688964844 0