<?xml version="1.0"?>
<VTKFile type="PolyData" version="0.1" byte_order="LittleEndian" header_type="UInt32" compressor="vtkZLibDataCompressor">
  <PolyData>
    <Piece NumberOfPoints="154" NumberOfVerts="0" NumberOfLines="0" NumberOfStrips="0" NumberOfPolys="0">
      <PointData>
        <DataArray type="Int32" Name="id" format="ascii" RangeMin="0" RangeMax="153">
          0 1 2 3 4 5
          6 7 8 9 10 11
          12 13 14 15 16 17
          18 19 20 21 22 23
          24 25 26 27 28 29
          30 31 32 33 34 35
          36 37 38 39 40 41
          42 43 44 45 46 47
          48 49 50 51 52 53
          54 55 56 57 58 59
          60 61 62 63 64 65
          66 67 68 69 70 71
          72 73 74 75 76 77
          78 79 80 81 82 83
          84 85 86 87 88 89
          90 91 92 93 94 95
          96 97 98 99 100 101
          102 103 104 105 106 107
          108 109 110 111 112 113
          114 115 116 117 118 119
          120 121 122 123 124 125
          126 127 128 129 130 131
          132 133 134 135 136 137
          138 139 140 141 142 143
          144 145 146 147 148 149
          150 151 152 153
        </DataArray>
        <DataArray type="Float64" Name="director" NumberOfComponents="3" format="ascii" RangeMin="0.9999999999999999" RangeMax="1">
          -0.993771223982977 -0.11143946510718561 0 0.22838563081192584 -0.973570749169591 0
          -0.8307923867499951 -0.5565824378456856 0 -0.2450284411835924 0.9695158910565308 0
          -0.8756118930433634 0.48301533387773254 0 0.12877478779220944 0.9916738647504387 0
          0.9963464007005917 0.08540403861045437 0 0.8165777388915252 0.5772354773805956 0
          0.8903069016076827 -0.4553609787297635 0 -0.3083228547088261 -0.9512817759550533 0
          -0.739135148657997 0.6735571482942785 0 -0.9999829763824101 -0.005834976039050474 0
          0.06222809578601667 -0.9980619540363446 0 -0.35798794198828565 0.9337262090093604 0
          0.725082350406619 0.6886621705370588 0 0.9994507860818498 -0.033137987270994436 0
          -0.7904968451827792 -0.612466111516444 0 -0.9510453228059903 0.3090514422694865 0
          0.7697654547940709 -0.6383268321210359 0 -0.9455537202115848 -0.32546606919006493 0
          0.8804339535367238 0.4741688027060554 0 0.6358589446357817 -0.7718052879623655 0
          -0.9116571302584359 -0.41095167215738804 0 0.6897641415877003 0.724034135231056 0
          -0.9817826341692624 -0.1900075241764501 0 -0.7717684096834547 0.6359037048285464 0
          0.8065391225725181 -0.5911807200509439 0 0.8449028684255148 0.5349197537260494 0
          -0.9835031629456858 0.18089092977767474 0 -0.5285322045390042 -0.8489132516135793 0
          0.4935114136589263 0.8697393199047448 0 -0.9999995520026389 -0.0009465698714826292 0
          -0.9760572176271072 0.21751392580253348 0 0.3516527166099161 0.9361305287730264 0
          0.949927798427032 -0.31246948295085075 0 -0.40686256523301256 0.9134893830866414 0
          0.7265140635012555 0.6871515957449955 0 -0.6845772074842887 -0.7289403590095784 0
          -0.8775134283080123 -0.47955206509733533 0 0.9694091727134843 0.2454503124034639 0
          -0.7128271535129944 0.7013397530545106 0 0.8141486572465076 -0.5806564938960973 0
          0.3139933685062526 -0.9494251758480479 0 -0.9980848538376665 -0.061859716616259046 0
          0.5942998085116147 0.8042435810145195 0 -0.932325789088629 0.3616194449974521 0
          0.5264034818461005 -0.8502348936031161 0 -0.9831628166554345 0.18273170481925807 0
          -0.600285843840036 -0.7997855373068807 0 -0.7634923795443195 0.6458168365548802 0
          0.867577050630659 -0.49730278625703167 0 0.9908922388029735 -0.13465723552795408 0
          0.9866668586319814 0.16275291111773563 0 0.20337153426176016 0.979101638775065 0
          -0.1999889325498313 0.9797981561819654 0 -0.9949424256022281 -0.10044685030778645 0
          -0.9479835811677465 -0.3183192263065091 0 0.17495172277774917 0.9845770130858721 0
          -0.29065968605356857 -0.9568264978057626 0 0.8690248982958628 -0.49476835604337643 0
          -0.9399927012244751 -0.34119455101849827 0 -0.31795611657081313 -0.9481054308119997 0
          -0.8502905785889354 -0.5263135300967414 0 0.7664984973273934 -0.6422461004901843 0
          0.4304456927143868 -0.9026164775936852 0 -0.9360860136775772 0.35177119694088477 0
          0.8191440758221726 -0.5735878163328076 0 -0.7269727336120922 -0.6866663269627847 0
          -0.6933029127955963 0.7206462870986999 0 0.9991986895237238 0.040024728032467566 0
          -0.30780519981112275 0.9514493990587386 0 -0.10098830871680764 0.9948876124982755 0
          0.16077684375198995 0.9869907833982788 0 0.061892635324383945 0.9980828130433881 0
          -0.05764418750288794 -0.9983371913572748 0 -0.8828690719213896 0.4696192094076479 0
          -0.9794284291604636 -0.20179185353295795 0 0.7443797603485101 -0.6677565217828237 0
          -0.32326576325330875 0.9463082195079232 0 0.10871530866622338 -0.9940729257260796 0
          -0.23109121047035613 0.972932090355409 0 0.9324889281783963 -0.36119855872456846 0
          -0.5756634398467237 -0.8176867395426182 0 -0.9707151352903267 -0.24023348250875162 0
          -0.9612047802064527 0.2758357672751393 0 0.17741977736309264 0.9841352664143433 0
          -0.9126025107770064 -0.40884796357998887 0 -0.015163589820299986 -0.9998850261623892 0
          0.9849425230925065 0.17288211649608876 0 0.4727997060815818 0.8811699256835596 0
          0.6341894115263613 -0.7731777223302851 0 -0.42810401408326676 -0.9037294689926816 0
          -0.977549073477317 -0.21070787584625103 0 -0.3616018193133165 -0.9323326253378135 0
          0.25647062685421196 0.9665520252738636 0 0.9999996557770974 0.0008297262721247931 0
          -0.9170534132872495 0.3987643880516478 0 0.9890136725465624 -0.14782406947436236 0
          -0.9116126867090104 -0.4110502517103956 0 0.9088321646738621 -0.4171619547061093 0
          -0.5687703271998528 0.8224963920267203 0 0.8483212059548121 -0.5294819463658542 0
          -0.849880902956778 -0.526974810393601 0 0.9952045835101265 0.09781532068360027 0
          -0.6987202668946343 0.7153949878428636 0 -0.9122528544060484 0.4096275498889411 0
          0.8595984210573772 0.510970209029513 0 0.7734939357933784 -0.6338037009128844 0
          -0.07350183787360495 -0.9972950816228877 0 -0.9318183552835964 -0.36292499604818274 0
          0.4560949782518769 0.8899311045319295 0 0.20197570598072287 -0.9793905320114079 0
          0.11677656383189401 -0.9931582120385531 0 0.9726232984487672 -0.23238743364183959 0
          -0.0744731680413542 -0.997223017805889 0 -0.17259707282152037 -0.9849925128920741 0
          -0.7914016306667869 -0.6112965393145544 0 -0.7900280529666672 -0.6130706937423259 0
          -0.8952949124970749 0.44547392702250815 0 0.6680641063032227 -0.7441037225207763 0
          0.9468655572627397 0.3216296262310447 0 -0.3606601938862786 -0.9326972845172821 0
          0.9764042242646471 -0.2159508991371713 0 0.1004401854034041 0.9949430984514289 0
          0.6454488709015765 -0.7638034793399935 0 -0.6503473638561559 -0.7596369569243908 0
          -0.9999914039745385 -0.0041463209031059964 0 0.7323900302713204 -0.6808853380409762 0
          -0.15837186332094733 0.987379538428993 0 -0.8098906821490938 0.5865808409486928 0
          0.7494811171200256 0.6620257208602385 0 0.8031519098737974 0.5957742942306857 0
          0.9499175578079702 0.31250061338842466 0 -0.6828507409506087 0.7305579139145675 0
          -0.8913489543087763 0.45331781528266796 0 -0.9981156788882821 0.06136034189428696 0
          0.8864399241663079 0.46284366782319747 0 0.864263369859023 0.5030395884221496 0
          -0.6149722057508212 -0.7885487848915688 0 0.473876847264399 0.8805911273836192 0
          -0.03470519484081262 -0.9993975932786017 0 0.9595312720351574 0.281602091587745 0
          -0.8325837140223533 0.5538992319409228 0 0.9683935569460523 0.2494271814886521 0
          0.7096415122871972 -0.7045629312124927 0 -0.6753567453080674 -0.7374911976199405 0
          -0.17550977739953202 0.9844776879326249 0 -0.9697511237937216 -0.24409579656522945 0
          -0.4245910204967906 0.905385257950169 0 0.822538948012451 0.5687087822449821 0
          0.04569982246313809 -0.998955217328003 0 0.49561777588535216 0.8685407418345191 0
          0.2767114467610122 0.9609530556855665 0 -0.2188238660004295 -0.9757643750765992 0
          <InformationKey name="L2_NORM_RANGE" location="vtkDataArray" length="2">
            <Value index="0">
              1
            </Value>
            <Value index="1">
              1
            </Value>
          </InformationKey>
        </DataArray>
        <DataArray type="Float64" Name="velocity" NumberOfComponents="3" format="ascii" RangeMin="2.98391528750295" RangeMax="65.61664053985334">
          20.472372037415383 -30.489259884928693 0 -7.778161120144524 43.605506408926914 0
          -35.778279556590725 14.318100471258902 0 -2.7267860528004704 -6.306708942777526 0
          -25.56803597993237 0.5919415230237348 0 40.69440930810454 -42.34960265147567 0
          21.390392053252754 11.720491675449018 0 -31.091580543867785 -10.301819378431787 0
          -22.233594277397 35.80993014386058 0 40.8936574712134 11.727908496204755 0
          -31.918129728714472 1.502371966558826 0 32.46317064138093 -14.067556233339687 0
          31.61170207931397 -20.66117562390716 0 -32.788218903188394 -0.7210412736466054 0
          -30.467523066969363 36.43074923190564 0 -29.58028331655805 11.627227611362315 0
          37.80505508071815 -10.753091333426255 0 44.65772551607054 -33.330173144632525 0
          47.18774005931614 6.396489460552942 0 9.836891189866492 -36.87781496106794 0
          6.677739541459459 5.438027088135769 0 -18.951003944933063 -37.93510690561732 0
          23.77908201111339 -25.727634747998636 0 32.285914726045576 -31.45240287607238 0
          -18.732306147503376 38.172541468590836 0 17.42129460906331 23.929755673071398 0
          -43.74567596165927 -36.843843838172035 0 -41.00470913383489 -49.1685554695042 0
          -4.3489588147394045 13.430332075080756 0 2.9762992276979077 -0.21305715242312573 0
          -16.420210149222868 -24.717665071237764 0 -26.63245586108499 -32.68369682188443 0
          9.59810303037343 22.68931438280859 0 37.757309281314306 20.71597266757422 0
          -26.523439665569285 -2.200425364398683 0 -48.17882370239545 24.733119867345934 0
          15.472358145094617 -42.19330576503555 0 -2.7230899171649696 49.647506705142575 0
          3.209752212846098 39.943600631846664 0 27.290092728339346 -29.624030405099575 0
          40.710862227344634 -12.518743865476708 0 34.808888796398136 -17.330075407408792 0
          -17.326333983387784 15.921061981020685 0 8.676498234140595 -45.101679767889145 0
          26.99656655139428 -0.8247828969564566 0 -1.181598492863479 -7.087342925864128 0
          -10.527228461045638 27.645380145270124 0 47.47543864880045 24.850515939083976 0
          13.45020038299144 -42.781974126121774 0 13.33632968921519 2.89206325620421 0
          -20.383234879262602 -17.467213088655853 0 13.111992425538233 49.45054225750374 0
          1.6047826830209004 22.445391370448775 0 -25.442525168919026 -16.766088433362327 0
          24.860911549332883 18.296648546241826 0 18.127137052491975 -42.11576276898946 0
          -4.106371249565804 19.81468592825003 0 -43.2115168522386 -43.085994704941484 0
          2.7042817825837204 -23.795120132132308 0 -1.6624837545658195 -36.91945356486498 0
          -40.55592314206473 -37.96183180819797 0 46.98372058379586 25.62816454897687 0
          -23.182362140209666 22.4905983535036 0 -8.42374893276238 -2.5281598168396826 0
          -44.45585735866184 11.374414308737222 0 -0.9380815156004232 40.44748670579848 0
          43.5214270198436 41.82766196839604 0 -19.617472876146607 29.010177679462174 0
          -27.377259211045168 -5.104813753149479 0 1.0108912986547693 -26.93680745999526 0
          21.18807799653547 48.4452609761332 0 15.521324819791857 -22.733301715898534 0
          -3.0984436752635744 -49.699879474370995 0 -5.357606698271908 47.09441502974741 0
          -19.533649987483585 -28.48909553641595 0 -25.241492794096537 30.645102659141713 0
          -1.3628901407151872 -9.249808436218693 0 -28.437070584076316 4.0252086974848424 0
          22.302423751473526 -21.630608392707323 0 4.286209731170565 25.592468486596516 0
          -16.80227135673981 30.176297340482108 0 35.70724318896097 -48.51082997011254 0
          38.494266527440914 9.308694076898924 0 -41.37827709570729 42.48759424258512 0
          41.371957205314274 48.07567751376408 0 40.00221093710812 44.971458396046486 0
          43.45219546574209 -49.16757290067578 0 27.77940311086799 -47.40411222574361 0
          8.787704962513757 14.978077069606684 0 -17.176354508003442 -38.89206379839693 0
          -37.572734230027905 47.39150589914381 0 3.322947059262674 16.230028184641725 0
          20.82576325094061 -43.12614201683975 0 -29.404442159877867 -6.6570323329381935 0
          -48.88074135310182 -43.07374742736768 0 -15.693819004659524 -18.776991949103287 0
          49.2742614956165 -23.093566379026992 0 35.70662412955289 -14.438908494432013 0
          24.676827977366614 34.48562696853686 0 -28.28613766609157 46.49521791482232 0
          21.219265309149932 48.266786794162286 0 25.989900495501132 -30.673962513745963 0
          -14.741048879365302 -30.369965831724773 0 33.206792723445574 45.25947670903301 0
          26.73700517552618 36.1968809297727 0 -4.433626259916984 -16.731616061562868 0
          33.82599634129042 5.430878965379037 0 -37.91344272052366 -28.781627030961573 0
          -0.8760744559602713 -9.034520229977083 0 25.951148963832622 -14.29357740625877 0
          27.17860558051683 48.15404052238152 0 34.61617221348607 33.462162550860555 0
          -13.28055184508198 -44.93740558320786 0 47.55616001461492 34.25892934866374 0
          36.946038841117556 -42.45015674570037 0 -46.76239316488481 11.393180618063838 0
          23.568028568935404 11.552780427737098 0 16.263007945057282 45.12644264060411 0
          -23.411248530157515 41.93857265065735 0 -38.160345232049345 -18.69342940760771 0
          37.21153998486223 -26.635630373860984 0 30.80584946405935 5.653176675427417 0
          44.35923105765637 0.370346282237378 0 16.64168251311186 -34.7034267378138 0
          47.322877480901255 13.376690736606477 0 -32.1350217035443 -42.58571958176201 0
          -0.5025219679409361 28.59799073613067 0 -3.5320261053794297 38.30316610148137 0
          14.736889949280638 40.32409694969634 0 -49.402638529229115 19.356180838194604 0
          8.508964450503598 -39.46387075781778 0 49.03198966734128 -27.000797471280585 0
          -16.70921662991016 18.938285128010065 0 46.14207459237997 -27.3400906744995 0
          42.424140585792586 37.62461911345025 0 -6.825547086494495 -2.911259141055119 0
          6.210247997996007 33.76154121673389 0 -35.16911208657487 13.927818279591207 0
          49.5593687100304 13.93941034113417 0 -6.0481675260535965 -47.161165000275155 0
          -41.68490984500472 3.0367185203014984 0 28.200151364646487 23.664522522360798 0
          -30.983903256438072 -23.817273645282434 0 -4.775523168997552 -3.9973115200368454 0
          17.36371431475763 -32.304692769073746 0 -31.21691646176371 -40.35131875297581 0
          -17.61253928181918 -32.96735050248542 0 -47.52659271635095 33.064298464373394 0
          -25.51716157275273 -35.79649925661745 0 -34.4558032257712 -19.698927528483058 0
          -46.64276824331557 -9.071061809886274 0 28.312364537561464 -5.662808823633235 0
          -48.25117889494449 -21.421563451189467 0 45.139670111270334 -32.86849758057289 0
          <InformationKey name="L2_NORM_RANGE" location="vtkDataArray" length="2">
            <Value index="0">
              2.9839152875
            </Value>
            <Value index="1">
              65.61664054
            </Value>
          </InformationKey>
        </DataArray>
        <DataArray type="Float64" Name="force" NumberOfComponents="3" format="ascii" RangeMin="0.49999999999999994" RangeMax="0.5">
          -0.4968856119914885 -0.055719732553592805 0 0.11419281540596292 -0.4867853745847955 0
          -0.41539619337499756 -0.2782912189228428 0 -0.1225142205917962 0.4847579455282654 0
          -0.4378059465216817 0.24150766693886627 0 0.06438739389610472 0.49583693237521936 0
          0.49817320035029583 0.042702019305227185 0 0.4082888694457626 0.2886177386902978 0
          0.44515345080384133 -0.22768048936488175 0 -0.15416142735441304 -0.4756408879775266 0
          -0.3695675743289985 0.33677857414713924 0 -0.49999148819120504 -0.002917488019525237 0
          0.031114047893008336 -0.4990309770181723 0 -0.17899397099414283 0.4668631045046802 0
          0.3625411752033095 0.3443310852685294 0 0.4997253930409249 -0.016568993635497218 0
          -0.3952484225913896 -0.306233055758222 0 -0.47552266140299515 0.15452572113474325 0
          0.38488272739703544 -0.31916341606051796 0 -0.4727768601057924 -0.16273303459503247 0
          0.4402169767683619 0.2370844013530277 0 0.31792947231789087 -0.38590264398118274 0
          -0.45582856512921793 -0.20547583607869402 0 0.34488207079385014 0.362017067615528 0
          -0.4908913170846312 -0.09500376208822504 0 -0.38588420484172736 0.3179518524142732 0
          0.40326956128625907 -0.29559036002547195 0 0.4224514342127574 0.2674598768630247 0
          -0.4917515814728429 0.09044546488883737 0 -0.2642661022695021 -0.42445662580678967 0
          0.24675570682946316 0.4348696599523724 0 -0.49999977600131945 -0.0004732849357413146 0
          -0.4880286088135536 0.10875696290126674 0 0.17582635830495805 0.4680652643865132 0
          0.474963899213516 -0.15623474147542538 0 -0.20343128261650628 0.4567446915433207 0
          0.36325703175062773 0.34357579787249776 0 -0.34228860374214437 -0.3644701795047892 0
          -0.43875671415400613 -0.23977603254866767 0 0.48470458635674213 0.12272515620173195 0
          -0.3564135767564972 0.3506698765272553 0 0.4070743286232538 -0.29032824694804865 0
          0.1569966842531263 -0.47471258792402393 0 -0.49904242691883327 -0.030929858308129523 0
          0.29714990425580734 0.40212179050725977 0 -0.4661628945443145 0.18080972249872604 0
          0.26320174092305026 -0.42511744680155805 0 -0.49158140832771724 0.09136585240962904 0
          -0.300142921920018 -0.39989276865344037 0 -0.38174618977215974 0.3229084182774401 0
          0.4337885253153295 -0.24865139312851584 0 0.49544611940148675 -0.06732861776397704 0
          0.4933334293159907 0.08137645555886781 0 0.10168576713088008 0.4895508193875325 0
          -0.09999446627491565 0.4898990780909827 0 -0.49747121280111406 -0.05022342515389323 0
          -0.47399179058387325 -0.15915961315325455 0 0.08747586138887459 0.49228850654293604 0
          -0.14532984302678428 -0.4784132489028813 0 0.4345124491479314 -0.24738417802168822 0
          -0.46999635061223755 -0.17059727550924914 0 -0.15897805828540656 -0.47405271540599986 0
          -0.4251452892944677 -0.2631567650483707 0 0.3832492486636967 -0.32112305024509213 0
          0.2152228463571934 -0.4513082387968426 0 -0.4680430068387886 0.17588559847044238 0
          0.4095720379110863 -0.2867939081664038 0 -0.3634863668060461 -0.34333316348139237 0
          -0.34665145639779815 0.36032314354934997 0 0.4995993447618619 0.020012364016233783 0
          -0.15390259990556138 0.4757246995293693 0 -0.05049415435840382 0.49744380624913775 0
          0.08038842187599497 0.4934953916991394 0 0.030946317662191972 0.49904140652169404 0
          -0.02882209375144397 -0.4991685956786374 0 -0.4414345359606948 0.23480960470382395 0
          -0.4897142145802318 -0.10089592676647897 0 0.37218988017425503 -0.33387826089141187 0
          -0.16163288162665437 0.4731541097539616 0 0.05435765433311169 -0.4970364628630398 0
          -0.11554560523517807 0.4864660451777045 0 0.4662444640891982 -0.18059927936228423 0
          -0.2878317199233619 -0.4088433697713091 0 -0.48535756764516336 -0.12011674125437581 0
          -0.48060239010322636 0.13791788363756965 0 0.08870988868154632 0.4920676332071717 0
          -0.4563012553885032 -0.20442398178999444 0 -0.007581794910149993 -0.4999425130811946 0
          0.49247126154625326 0.08644105824804438 0 0.2363998530407909 0.4405849628417798 0
          0.31709470576318066 -0.38658886116514257 0 -0.21405200704163338 -0.4518647344963408 0
          -0.4887745367386585 -0.10535393792312552 0 -0.18080090965665824 -0.46616631266890673 0
          0.12823531342710598 0.4832760126369318 0 0.4999998278885487 0.00041486313606239655 0
          -0.45852670664362477 0.1993821940258239 0 0.4945068362732812 -0.07391203473718118 0
          -0.4558063433545052 -0.2055251258551978 0 0.45441608233693104 -0.20858097735305464 0
          -0.2843851635999264 0.41124819601336016 0 0.42416060297740604 -0.2647409731829271 0
          -0.424940451478389 -0.2634874051968005 0 0.49760229175506326 0.048907660341800135 0
          -0.34936013344731714 0.3576974939214318 0 -0.4561264272030242 0.20481377494447056 0
          0.4297992105286886 0.2554851045147565 0 0.3867469678966892 -0.3169018504564422 0
          -0.036750918936802476 -0.49864754081144386 0 -0.4659091776417982 -0.18146249802409137 0
          0.22804748912593845 0.44496555226596474 0 0.10098785299036143 -0.48969526600570396 0
          0.058388281915947006 -0.4965791060192766 0 0.4863116492243836 -0.11619371682091979 0
          -0.0372365840206771 -0.4986115089029445 0 -0.08629853641076018 -0.49249625644603706 0
          -0.39570081533339346 -0.3056482696572772 0 -0.3950140264833336 -0.30653534687116296 0
          -0.44764745624853747 0.22273696351125408 0 0.33403205315161133 -0.37205186126038814 0
          0.47343277863136984 0.16081481311552234 0 -0.1803300969431393 -0.46634864225864103 0
          0.48820211213232356 -0.10797544956858565 0 0.05022009270170205 0.49747154922571446 0
          0.32272443545078827 -0.38190173966999674 0 -0.32517368192807794 -0.3798184784621954 0
          -0.4999957019872692 -0.0020731604515529982 0 0.3661950151356602 -0.3404426690204881 0
          -0.07918593166047366 0.4936897692144965 0 -0.4049453410745469 0.2932904204743464 0
          0.3747405585600128 0.33101286043011924 0 0.4015759549368987 0.29788714711534287 0
          0.4749587789039851 0.15625030669421233 0 -0.34142537047530436 0.36527895695728374 0
          -0.4456744771543881 0.22665890764133398 0 -0.49905783944414106 0.03068017094714348 0
          0.44321996208315395 0.23142183391159873 0 0.4321316849295115 0.2515197942110748 0
          -0.3074861028754106 -0.3942743924457844 0 0.2369384236321995 0.4402955636918096 0
          -0.01735259742040631 -0.49969879663930084 0 0.4797656360175787 0.1408010457938725 0
          -0.41629185701117666 0.2769496159704614 0 0.48419677847302617 0.12471359074432604 0
          0.3548207561435986 -0.35228146560624635 0 -0.3376783726540337 -0.36874559880997027 0
          -0.08775488869976601 0.49223884396631246 0 -0.4848755618968608 -0.12204789828261473 0
          -0.2122955102483953 0.4526926289750845 0 0.4112694740062255 0.28435439112249106 0
          0.022849911231569046 -0.4994776086640015 0 0.24780888794267608 0.43427037091725956 0
          0.1383557233805061 0.4804765278427833 0 -0.10941193300021475 -0.4878821875382996 0
          <InformationKey name="L2_NORM_RANGE" location="vtkDataArray" length="2">
            <Value index="0">
              0.5
            </Value>
            <Value index="1">
              0.5
            </Value>
          </InformationKey>
        </DataArray>
        <DataArray type="Float64" Name="radius" format="ascii" RangeMin="1" RangeMax="1">
          1 1 1 1 1 1
          1 1 1 1 1 1
          1 1 1 1 1 1
          1 1 1 1 1 1
          1 1 1 1 1 1
          1 1 1 1 1 1
          1 1 1 1 1 1
          1 1 1 1 1 1
          1 1 1 1 1 1
          1 1 1 1 1 1
          1 1 1 1 1 1
          1 1 1 1 1 1
          1 1 1 1 1 1
          1 1 1 1 1 1
          1 1 1 1 1 1
          1 1 1 1 1 1
          1 1 1 1 1 1
          1 1 1 1 1 1
          1 1 1 1 1 1
          1 1 1 1 1 1
          1 1 1 1 1 1
          1 1 1 1 1 1
          1 1 1 1 1 1
          1 1 1 1 1 1
          1 1 1 1 1 1
          1 1 1 1
        </DataArray>
      </PointData>
      <CellData>
      </CellData>
      <Points>
        <DataArray type="Float32" Name="Points" NumberOfComponents="3" format="ascii" RangeMin="2.9329025179431225" RangeMax="67.1733388049029">
          -37.581329345703125 33.67373275756836 0 47.184715270996094 -27.900592803955078 0
          -19.6424503326416 4.084158420562744 0 -31.537988662719727 49.56742858886719 0
          48.583797454833984 46.388275146484375 0 22.479984283447266 48.707427978515625 0
          -39.84035110473633 29.59072494506836 0 -19.925867080688477 -50.3719596862793 0
          -38.80913543701172 13.681758880615234 0 37.35544967651367 0.8591402769088745 0
          29.912185668945312 -13.39307689666748 0 -28.3831729888916 18.232576370239258 0
          -10.93421459197998 23.725786209106445 0 -3.1077945232391357 -7.332185745239258 0
          -32.477333068847656 -19.724937438964844 0 29.14630889892578 -18.829198837280273 0
          36.87937545776367 -35.616729736328125 0 49.20283508300781 31.447050094604492 0
          -37.85331344604492 26.300994873046875 0 -1.5351579189300537 15.60107707977295 0
          -38.326263427734375 -29.07996368408203 0 -44.886619567871094 -46.29829025268555 0
          -8.795492172241211 -4.113725662231445 0 -0.9593993425369263 29.979978561401367 0
          42.01752471923828 30.517126083374023 0 21.106311798095703 -49.10611343383789 0
          20.459354400634766 14.756035804748535 0 -4.380194664001465 27.188222885131836 0
          7.936718940734863 38.006534576416016 0 31.000295639038086 -47.625736236572266 0
          32.73738098144531 32.43973922729492 0 44.0955696105957 -8.733773231506348 0
          -7.356867790222168 7.702078819274902 0 -34.27939224243164 26.933469772338867 0
          -26.60896110534668 31.103160858154297 0 49.776493072509766 -17.196931838989258 0
          -20.357383728027344 -48.52572250366211 0 -28.972484588623047 40.50215148925781 0
          34.792442321777344 45.709110260009766 0 27.67583656311035 49.26312255859375 0
          -43.47412872314453 29.800636291503906 0 9.33016300201416 23.86604881286621 0
          19.13479995727539 17.979217529296875 0 -10.578304290771484 5.734382152557373 0
          -29.6424617767334 2.329460382461548 0 -9.582633018493652 -14.854572296142578 0
          9.627995491027832 -13.583002090454102 0 46.79283905029297 -34.837589263916016 0
          -10.920154571533203 -11.473859786987305 0 22.120805740356445 -11.711494445800781 0
          42.628326416015625 -6.272760391235352 0 35.111568450927734 12.128338813781738 0
          -37.397361755371094 -2.5370967388153076 0 -15.655474662780762 3.1743428707122803 0
          21.59971046447754 48.609169006347656 0 21.99813461303711 41.89423370361328 0
          0.8404366374015808 5.959462642669678 0 0.2961447238922119 -3.727036476135254 0
          4.796370506286621 -5.680428981781006 0 34.765926361083984 10.891932487487793 0
          0.4536609351634979 47.513153076171875 0 -46.818572998046875 47.737709045410156 0
          -13.410398483276367 17.94378662109375 0 -15.315972328186035 35.52824020385742 0
          -45.567596435546875 15.509264945983887 0 24.79864501953125 -36.15436553955078 0
          48.004638671875 -39.9871940612793 0 -22.29047966003418 30.23638916015625 0
          -42.30965042114258 12.760995864868164 0 -49.12923049926758 18.642070770263672 0
          3.026597499847412 -6.034762859344482 0 -29.859325408935547 -35.36994934082031 0
          -11.143527030944824 26.662555694580078 0 -46.59309768676758 -24.656442642211914 0
          1.5669951438903809 32.941017150878906 0 47.84123992919922 31.934717178344727 0
          -19.526212692260742 -44.147491455078125 0 -24.419973373413086 3.4934730529785156 0
          39.09441375732422 -15.110696792602539 0 -47.47978973388672 -33.428016662597656 0
          37.92060470581055 -29.61677360534668 0 -22.968122482299805 -1.0602389574050903 0
          -28.122594833374023 -0.12207849323749542 0 44.869293212890625 15.128313064575195 0
          26.561134338378906 -6.655632495880127 0 4.532721519470215 -44.64523696899414 0
          -17.253498077392578 -9.28031063079834 0 40.416168212890625 31.56510353088379 0
          -24.771142959594727 -36.43901443481445 0 -1.3078023195266724 -11.590205192565918 0
          21.228294372558594 -20.96770668029785 0 12.026251792907715 31.418920516967773 0
          -18.522727966308594 -11.68120288848877 0 -15.239862442016602 31.55605697631836 0
          17.522136688232422 -12.365924835205078 0 -4.3389201164245605 -19.550508499145508 0
          40.76447296142578 -1.5858776569366455 0 25.233285903930664 -38.9015007019043 0
          -10.449721336364746 37.345916748046875 0 -13.202529907226562 41.926883697509766 0
          5.086134910583496 -36.28335952758789 0 -30.068347930908203 45.10456466674805 0
          49.6756591796875 -26.497343063354492 0 -48.322025299072266 -11.309523582458496 0
          28.369779586791992 -2.7410590648651123 0 4.169060707092285 -48.24413299560547 0
          39.739681243896484 -29.980161666870117 0 38.186954498291016 -5.700148582458496 0
          -34.65441131591797 -25.97907066345215 0 29.15904998779297 -2.7109360694885254 0
          -41.028812408447266 14.602206230163574 0 13.878483772277832 7.915613651275635 0
          22.158287048339844 -14.550962448120117 0 18.482921600341797 21.118663787841797 0
          -33.74554443359375 -36.46202850341797 0 -4.817959308624268 -45.88951110839844 0
          29.763015747070312 -32.941383361816406 0 32.89104461669922 -16.887929916381836 0