<?xml version="1.0"?>
<VTKFile type="PolyData" version="0.1" byte_order="LittleEndian" header_type="UInt32" compressor="vtkZLibDataCompressor">
  <PolyData>
    <Piece NumberOfPoints="154" NumberOfVerts="0" NumberOfLines="0" NumberOfStrips="0" NumberOfPolys="0">
      <PointData>
        <DataArray type="Int32" Name="id" format="ascii" RangeMin="0" RangeMax="153">
          0 1 2 3 4 5
          6 7 8 9 10 11
          12 13 14 15 16 17
          18 19 20 21 22 23
          24 25 26 27 28 29
          30 31 32 33 34 35
          36 37 38 39 40 41
          42 43 44 45 46 47
          48 49 50 51 52 53
          54 55 56 57 58 59
          60 61 62 63 64 65
          66 67 68 69 70 71
          72 73 74 75 76 77
          78 79 80 81 82 83
          84 85 86 87 88 89
          90 91 92 93 94 95
          96 97 98 99 100 101
          102 103 104 105 106 107
          108 109 110 111 112 113
          114 115 116 117 118 119
          120 121 122 123 124 125
          126 127 128 129 130 131
          132 133 134 135 136 137
          138 139 140 141 142 143
          144 145 146 147 148 149
          150 151 152 153
        </DataArray>
        <DataArray type="Float64" Name="director" NumberOfComponents="3" format="ascii" RangeMin="0.9999999999999999" RangeMax="1">
          -0.9719222095187521 -0.23530239829671723 0 0.21045729129722568 -0.9776030526444948 0
          -0.8374197917290981 -0.5465602367721183 0 -0.129583784562363 0.9915684760915381 0
          -0.9825555576533231 0.1859692881219024 0 -0.01982431923038449 0.9998034788732493 0
          0.990772702379383 0.13553395227711212 0 0.7517156621037774 0.6594873488914549 0
          0.9260125543594466 -0.3774927140604079 0 -0.42029547507805065 -0.9073873007866683 0
          -0.7423714019157909 0.6699885831994328 0 -0.9936298397634207 -0.11269312992245306 0
          -0.18221967836922173 -0.9832578445224922 0 -0.5063156793461195 0.8623482085841412 0
          0.8714233581198776 0.49053168187495855 0 0.9976677690013542 0.06825703403943505 0
          -0.8587598330734119 -0.5123783261416565 0 -0.9182618038929632 0.39597381164824685 0
          0.7959367123457046 -0.6053798393903707 0 -0.9964212588318379 -0.08452617906882769 0
          0.796216685675525 0.6050115614200132 0 0.6941044903168474 -0.7198742643837114 0
          -0.970813461897222 -0.239835823427467 0 0.6864160423221874 0.7272090599289485 0
          -0.9702224130273143 -0.24221574940423582 0 -0.7089504736954649 0.7052582688965624 0
          0.8626540627308089 -0.5057943930630603 0 0.8413664425033015 0.5404650862260564 0
          -0.9999762321733185 0.006894569490071785 0 -0.46249976548593885 -0.8866194036481784 0
          0.5200449969594422 0.8541388652540369 0 -0.9974242181028038 0.07172816142917976 0
          -0.992937838067084 0.11863578606249162 0 0.22049140492063943 0.9753889174868262 0
          0.9997318394218414 -0.023157056078472342 0 -0.2754153387779618 0.9613253305545529 0
          0.7293955864510698 0.6840921564129353 0 -0.6400847655166866 -0.7683042971072388 0
          -0.8854795131107049 -0.46467841768391716 0 0.9636934136640652 0.26701124407129523 0
          -0.5492133743605977 0.8356821581339678 0 0.8319600416227505 -0.5548355514412098 0
          0.17832337634742307 -0.9839719373275111 0 -0.9946607830607468 -0.10319848177653541 0
          0.6909831459042134 0.7228708681889986 0 -0.9479718976573561 0.3183540187462869 0
          0.5396557595911596 -0.8418857767774014 0 -0.9933966670280485 0.1147303880302185 0
          -0.6137078276810609 -0.7895332179477905 0 -0.6933514883643446 0.7205995514729024 0
          0.8488393975132311 -0.5286508084070002 0 0.9767116493387655 -0.2145561792304018 0
          0.9855624634518383 -0.16931222824930287 0 -0.01687569135210945 0.9998575953811565 0
          -0.19621270059547763 0.9805613576543946 0 -0.9990813911091768 -0.04285293384766172 0
          -0.890004207312889 -0.4559523121614321 0 0.12882319211609167 0.991667577957967 0
          -0.3004860764472267 -0.9537862013372553 0 0.8199066565932969 -0.5724972266081308 0
          -0.9476846940462326 -0.319207958344554 0 -0.399408607574142 -0.9167730167253425 0
          -0.8285941742575217 -0.5598497069629454 0 0.8665429300946331 -0.49910254487731054 0
          0.4030573656113589 -0.915174715574262 0 -0.9241240123424849 0.38209267175912554 0
          0.7570879413109767 -0.6533129794528096 0 -0.8200871012976436 -0.5722387144236472 0
          -0.6933742890267499 0.7205776122782674 0 0.9969981489284762 -0.07742539010681257 0
          -0.2703147537052981 0.9627720051649009 0 0.09191345172747241 0.9957669995493632 0
          0.18685460992874112 0.9823875786818449 0 0.06819951882199596 0.9976717023312068 0
          -0.13679589543350126 -0.9905992544881843 0 -0.9736115597740613 0.22821159189296128 0
          -0.9910768598923198 -0.13329162684122028 0 0.44752355937554134 -0.8942721419142197 0
          -0.5886288583091702 0.8084034062061112 0 -0.30323202134687877 -0.9529167546170474 0
          -0.29116880938698897 0.9566716910414791 0 0.9608029357141391 -0.2772322469033713 0
          -0.6191540943627474 -0.7852695126094265 0 -0.9911787556147611 -0.1325317864437575 0
          -0.9827788091827151 0.18478585503605074 0 0.2764906171117045 0.9610166172596543 0
          -0.8791958351464897 -0.47646057912598233 0 -0.18860008353096835 -0.9820539743273339 0
          0.9386611060545407 0.3448410184135093 0 0.5389024328628361 0.8423681901962564 0
          0.4937325351594272 -0.8696138129796726 0 -0.12828173479019286 -0.9917377660043095 0
          -0.9307742926566059 -0.3655943327372497 0 -0.2519317038510348 -0.9677450163109673 0
          0.1175804308469385 0.9930633626722155 0 0.999598505851523 -0.02833420370158257 0
          -0.7822160140231174 0.6230073092715576 0 0.9909415795319715 -0.13429365567546916 0
          -0.8366717729164633 -0.5477046141898223 0 0.8883065654268231 -0.45925096169698043 0
          -0.5957778343076041 0.8031492838493607 0 0.6414217639570345 -0.7671884518957818 0
          -0.9049733321055534 -0.42546829279955956 0 0.9999629224083203 -0.008611260570417308 0
          -0.5798542611928986 0.8147202193246696 0 -0.8659954348093261 0.5000519041953608 0
          0.8909909968155084 0.45402097263640445 0 0.7738781466430825 -0.6333345199405033 0
          -0.17414724870656678 -0.9847196229221459 0 -0.9886317734599961 -0.15035696360775247 0
          0.3468601791350254 0.9379168492624589 0 0.04918034584901174 -0.9987899146377939 0
          0.274904398989401 -0.9614715655786583 0 0.9687439014819141 -0.2480630027666346 0
          -0.09221340508832712 -0.9957392670383227 0 -0.08078167441792071 -0.9967318200389897 0
          -0.9381048290276499 -0.34635145409685203 0 -0.8026753677433327 -0.5964161751814798 0
          -0.8971703277051467 0.4416847326832112 0 0.6550475416079827 -0.7555876641617028 0
          0.9770131750559727 0.2131789289940431 0 -0.3359560509105516 -0.9418776628928976 0
          0.9880991153283523 -0.15381852387579212 0 -0.122559391708325 0.9924611808549921 0
          0.41316777370844465 -0.9106549240896946 0 -0.5903534390393081 -0.8071448550380915 0
          -0.999600212996336 0.028273913377526813 0 0.6701809476486109 -0.7421977481836022 0
          -0.4725478418136267 0.8813050193873195 0 -0.849869104530206 0.5269938378814555 0
          0.7731495554473069 0.6342237498798289 0 0.7883135270782832 0.6152737464132505 0
          0.9971140703178617 0.07591792129758508 0 -0.6887020695931114 0.7250444533531479 0
          -0.8233180045861846 0.5675803584728979 0 -0.9995400055912234 -0.03032782917878028 0
          0.8007742672706197 0.5989662535378785 0 0.7503940024942587 0.6609908025234893 0
          -0.4998727125733578 -0.8660988807431592 0 0.4415048879874306 0.8972588444162622 0
          0.18910784171083725 -0.9819563249979446 0 0.9994569880305706 0.03295040328827264 0
          -0.8777148065965302 0.47918338690027185 0 0.9815034617780949 0.19144439014402048 0
          0.7320023079682688 -0.6813021511261561 0 -0.7891888809505254 -0.6141505598662738 0
          0.025686865840578395 0.9996700380241913 0 -0.9893494413352489 0.14555989464694877 0
          -0.6622910048231222 0.749246704984666 0 0.5874004102147864 0.8092964587093536 0
          -0.02738712035584998 -0.9996249024702287 0 0.2324485927306296 0.9726086837662667 0
          0.39572876563978227 0.9183674341162225 0 -0.032880494775350294 -0.9994592903482004 0
          <InformationKey name="L2_NORM_RANGE" location="vtkDataArray" length="2">
            <Value index="0">
              1
            </Value>
            <Value index="1">
              1
            </Value>
          </InformationKey>
        </DataArray>
        <DataArray type="Float64" Name="velocity" NumberOfComponents="3" format="ascii" RangeMin="2.98391528750295" RangeMax="65.61664053985334">
          20.472372037415383 -30.489259884928693 0 -7.778161120144524 43.605506408926914 0
          -35.778279556590725 14.318100471258902 0 -2.7267860528004704 -6.306708942777526 0
          -25.56803597993237 0.5919415230237348 0 40.69440930810454 -42.34960265147567 0
          21.390392053252754 11.720491675449018 0 -31.091580543867785 -10.301819378431787 0
          -22.233594277397 35.80993014386058 0 40.8936574712134 11.727908496204755 0
          -31.918129728714472 1.502371966558826 0 32.46317064138093 -14.067556233339687 0
          31.61170207931397 -20.66117562390716 0 -32.788218903188394 -0.7210412736466054 0
          -30.467523066969363 36.43074923190564 0 -29.58028331655805 11.627227611362315 0
          37.80505508071815 -10.753091333426255 0 44.65772551607054 -33.330173144632525 0
          47.18774005931614 6.396489460552942 0 9.836891189866492 -36.87781496106794 0
          6.677739541459459 5.438027088135769 0 -18.951003944933063 -37.93510690561732 0
          23.77908201111339 -25.727634747998636 0 32.285914726045576 -31.45240287607238 0
          -18.732306147503376 38.172541468590836 0 17.42129460906331 23.929755673071398 0
          -43.74567596165927 -36.843843838172035 0 -41.00470913383489 -49.1685554695042 0
          -4.3489588147394045 13.430332075080756 0 2.9762992276979077 -0.21305715242312573 0
          -16.420210149222868 -24.717665071237764 0 -26.63245586108499 -32.68369682188443 0
          9.59810303037343 22.68931438280859 0 37.757309281314306 20.71597266757422 0
          -26.523439665569285 -2.200425364398683 0 -48.17882370239545 24.733119867345934 0
          15.472358145094617 -42.19330576503555 0 -2.7230899171649696 49.647506705142575 0
          3.209752212846098 39.943600631846664 0 27.290092728339346 -29.624030405099575 0
          40.710862227344634 -12.518743865476708 0 34.808888796398136 -17.330075407408792 0
          -17.326333983387784 15.921061981020685 0 8.676498234140595 -45.101679767889145 0
          26.99656655139428 -0.8247828969564566 0 -1.181598492863479 -7.087342925864128 0
          -10.527228461045638 27.645380145270124 0 47.47543864880045 24.850515939083976 0
          13.45020038299144 -42.781974126121774 0 13.33632968921519 2.89206325620421 0
          -20.383234879262602 -17.467213088655853 0 13.111992425538233 49.45054225750374 0
          1.6047826830209004 22.445391370448775 0 -25.442525168919026 -16.766088433362327 0
          24.860911549332883 18.296648546241826 0 18.127137052491975 -42.11576276898946 0
          -4.106371249565804 19.81468592825003 0 -43.2115168522386 -43.085994704941484 0
          2.7042817825837204 -23.795120132132308 0 -1.6624837545658195 -36.91945356486498 0
          -40.55592314206473 -37.96183180819797 0 46.98372058379586 25.62816454897687 0
          -23.182362140209666 22.4905983535036 0 -8.42374893276238 -2.5281598168396826 0
          -44.45585735866184 11.374414308737222 0 -0.9380815156004232 40.44748670579848 0
          43.5214270198436 41.82766196839604 0 -19.617472876146607 29.010177679462174 0
          -27.377259211045168 -5.104813753149479 0 1.0108912986547693 -26.93680745999526 0
          21.18807799653547 48.4452609761332 0 15.521324819791857 -22.733301715898534 0
          -3.0984436752635744 -49.699879474370995 0 -5.357606698271908 47.09441502974741 0
          -19.533649987483585 -28.48909553641595 0 -25.241492794096537 30.645102659141713 0
          -1.3628901407151872 -9.249808436218693 0 -28.437070584076316 4.0252086974848424 0
          22.302423751473526 -21.630608392707323 0 4.286209731170565 25.592468486596516 0
          -16.80227135673981 30.176297340482108 0 35.70724318896097 -48.51082997011254 0
          38.494266527440914 9.308694076898924 0 -41.37827709570729 42.48759424258512 0
          41.371957205314274 48.07567751376408 0 40.00221093710812 44.971458396046486 0
          43.45219546574209 -49.16757290067578 0 27.77940311086799 -47.40411222574361 0
          8.787704962513757 14.978077069606684 0 -17.176354508003442 -38.89206379839693 0
          -37.572734230027905 47.39150589914381 0 3.322947059262674 16.230028184641725 0
          20.82576325094061 -43.12614201683975 0 -29.404442159877867 -6.6570323329381935 0
          -48.88074135310182 -43.07374742736768 0 -15.693819004659524 -18.776991949103287 0
          49.2742614956165 -23.093566379026992 0 35.70662412955289 -14.438908494432013 0
          24.676827977366614 34.48562696853686 0 -28.28613766609157 46.49521791482232 0
          21.219265309149932 48.266786794162286 0 25.989900495501132 -30.673962513745963 0
          -14.741048879365302 -30.369965831724773 0 33.206792723445574 45.25947670903301 0
          26.73700517552618 36.1968809297727 0 -4.433626259916984 -16.731616061562868 0
          33.82599634129042 5.430878965379037 0 -37.91344272052366 -28.781627030961573 0
          -0.8760744559602713 -9.034520229977083 0 25.951148963832622 -14.29357740625877 0
          27.17860558051683 48.15404052238152 0 34.61617221348607 33.462162550860555 0
          -13.28055184508198 -44.93740558320786 0 47.55616001461492 34.25892934866374 0
          36.946038841117556 -42.45015674570037 0 -46.76239316488481 11.393180618063838 0
          23.568028568935404 11.552780427737098 0 16.263007945057282 45.12644264060411 0
          -23.411248530157515 41.93857265065735 0 -38.160345232049345 -18.69342940760771 0
          37.21153998486223 -26.635630373860984 0 30.80584946405935 5.653176675427417 0
          44.35923105765637 0.370346282237378 0 16.64168251311186 -34.7034267378138 0
          47.322877480901255 13.376690736606477 0 -32.1350217035443 -42.58571958176201 0
          -0.5025219679409361 28.59799073613067 0 -3.5320261053794297 38.30316610148137 0
          14.736889949280638 40.32409694969634 0 -49.402638529229115 19.356180838194604 0
          8.508964450503598 -39.46387075781778 0 49.03198966734128 -27.000797471280585 0
          -16.70921662991016 18.938285128010065 0 46.14207459237997 -27.3400906744995 0
          42.424140585792586 37.62461911345025 0 -6.825547086494495 -2.911259141055119 0
          6.210247997996007 33.76154121673389 0 -35.16911208657487 13.927818279591207 0
          49.5593687100304 13.93941034113417 0 -6.0481675260535965 -47.161165000275155 0
          -41.68490984500472 3.0367185203014984 0 28.200151364646487 23.664522522360798 0
          -30.983903256438072 -23.817273645282434 0 -4.775523168997552 -3.9973115200368454 0
          17.36371431475763 -32.304692769073746 0 -31.21691646176371 -40.35131875297581 0
          -17.61253928181918 -32.96735050248542 0 -47.52659271635095 33.064298464373394 0
          -25.51716157275273 -35.79649925661745 0 -34.4558032257712 -19.698927528483058 0
          -46.64276824331557 -9.071061809886274 0 28.312364537561464 -5.662808823633235 0
          -48.25117889494449 -21.421563451189467 0 45.139670111270334 -32.86849758057289 0
          <InformationKey name="L2_NORM_RANGE" location="vtkDataArray" length="2">
            <Value index="0">
              2.9839152875
            </Value>
            <Value index="1">
              65.61664054
            </Value>
          </InformationKey>
        </DataArray>
        <DataArray type="Float64" Name="force" NumberOfComponents="3" format="ascii" RangeMin="0.49999999999999994" RangeMax="0.5">
          -0.48596110475937604 -0.11765119914835862 0 0.10522864564861284 -0.4888015263222474 0
          -0.41870989586454904 -0.27328011838605915 0 -0.0647918922811815 0.49578423804576904 0
          -0.49127777882666157 0.0929846440609512 0 -0.009912159615192245 0.49990173943662464 0
          0.4953863511896915 0.06776697613855606 0 0.3758578310518887 0.32974367444572744 0
          0.4630062771797233 -0.18874635703020395 0 -0.21014773753902533 -0.45369365039333415 0
          -0.37118570095789544 0.3349942915997164 0 -0.49681491988171034 -0.05634656496122653 0
          -0.09110983918461087 -0.4916289222612461 0 -0.25315783967305977 0.4311741042920706 0
          0.4357116790599388 0.24526584093747927 0 0.4988338845006771 0.03412851701971752 0
          -0.42937991653670593 -0.25618916307082823 0 -0.4591309019464816 0.19798690582412343 0
          0.3979683561728523 -0.3026899196951853 0 -0.4982106294159189 -0.04226308953441384 0
          0.3981083428377625 0.3025057807100066 0 0.3470522451584237 -0.3599371321918557 0
          -0.485406730948611 -0.1199179117137335 0 0.3432080211610937 0.36360452996447423 0
          -0.48511120651365713 -0.12110787470211791 0 -0.35447523684773247 0.3526291344482812 0
          0.43132703136540446 -0.25289719653153014 0 0.42068322125165075 0.2702325431130282 0
          -0.4999881160866593 0.0034472847450358925 0 -0.23124988274296943 -0.4433097018240892 0
          0.2600224984797211 0.42706943262701846 0 -0.4987121090514019 0.03586408071458988 0
          -0.496468919033542 0.05931789303124581 0 0.11024570246031971 0.4876944587434131 0
          0.4998659197109207 -0.011578528039236171 0 -0.1377076693889809 0.48066266527727647 0
          0.3646977932255349 0.34204607820646765 0 -0.3200423827583433 -0.3841521485536194 0
          -0.44273975655535247 -0.23233920884195858 0 0.4818467068320326 0.13350562203564761 0
          -0.27460668718029885 0.4178410790669839 0 0.41598002081137525 -0.2774177757206049 0
          0.08916168817371153 -0.49198596866375555 0 -0.4973303915303734 -0.05159924088826771 0
          0.3454915729521067 0.3614354340944993 0 -0.47398594882867806 0.15917700937314344 0
          0.2698278797955798 -0.4209428883887007 0 -0.49669833351402426 0.05736519401510925 0
          -0.30685391384053046 -0.39476660897389526 0 -0.3466757441821723 0.3602997757364512 0
          0.42441969875661556 -0.2643254042035001 0 0.48835582466938277 -0.1072780896152009 0
          0.49278123172591914 -0.08465611412465143 0 -0.008437845676054725 0.49992879769057824 0
          -0.09810635029773881 0.4902806788271973 0 -0.4995406955545884 -0.02142646692383086 0
          -0.4450021036564445 -0.22797615608071606 0 0.06441159605804583 0.4958337889789835 0
          -0.15024303822361335 -0.47689310066862767 0 0.40995332829664843 -0.2862486133040654 0
          -0.4738423470231163 -0.159603979172277 0 -0.199704303787071 -0.45838650836267125 0
          -0.41429708712876084 -0.2799248534814727 0 0.43327146504731656 -0.24955127243865527 0
          0.20152868280567945 -0.457587357787131 0 -0.46206200617124243 0.19104633587956277 0
          0.37854397065548834 -0.3266564897264048 0 -0.4100435506488218 -0.2861193572118236 0
          -0.34668714451337496 0.3602888061391337 0 0.4984990744642381 -0.038712695053406285 0
          -0.13515737685264906 0.48138600258245046 0 0.045956725863736204 0.4978834997746816 0
          0.09342730496437056 0.49119378934092245 0 0.03409975941099798 0.4988358511656034 0
          -0.06839794771675063 -0.49529962724409216 0 -0.48680577988703067 0.11410579594648064 0
          -0.4955384299461599 -0.06664581342061014 0 0.22376177968777067 -0.44713607095710983 0
          -0.2943144291545851 0.4042017031030556 0 -0.15161601067343938 -0.4764583773085237 0
          -0.14558440469349448 0.47833584552073954 0 0.48040146785706955 -0.13861612345168564 0
          -0.3095770471813737 -0.39263475630471323 0 -0.49558937780738055 -0.06626589322187874 0
          -0.49138940459135755 0.09239292751802537 0 0.13824530855585224 0.48050830862982713 0
          -0.43959791757324485 -0.23823028956299117 0 -0.09430004176548418 -0.49102698716366694 0
          0.46933055302727034 0.17242050920675464 0 0.26945121643141806 0.4211840950981282 0
          0.2468662675797136 -0.4348069064898363 0 -0.06414086739509643 -0.49586888300215476 0
          -0.46538714632830297 -0.18279716636862486 0 -0.1259658519255174 -0.48387250815548366 0
          0.05879021542346925 0.49653168133610776 0 0.4997992529257615 -0.014167101850791284 0
          -0.3911080070115587 0.3115036546357788 0 0.49547078976598574 -0.06714682783773458 0
          -0.41833588645823166 -0.27385230709491115 0 0.44415328271341153 -0.22962548084849022 0
          -0.29788891715380206 0.40157464192468034 0 0.32071088197851727 -0.3835942259478909 0
          -0.4524866660527767 -0.21273414639977978 0 0.49998146120416015 -0.004305630285208654 0
          -0.2899271305964493 0.4073601096623348 0 -0.43299771740466303 0.2500259520976804 0
          0.4454954984077542 0.22701048631820223 0 0.38693907332154126 -0.31666725997025164 0
          -0.08707362435328339 -0.49235981146107294 0 -0.49431588672999804 -0.07517848180387623 0
          0.1734300895675127 0.46895842463122944 0 0.02459017292450587 -0.49939495731889694 0
          0.1374521994947005 -0.48073578278932916 0 0.48437195074095707 -0.1240315013833173 0
          -0.04610670254416356 -0.49786963351916136 0 -0.040390837208960355 -0.4983659100194949 0
          -0.46905241451382496 -0.17317572704842601 0 -0.40133768387166635 -0.2982080875907399 0
          -0.44858516385257335 0.2208423663416056 0 0.32752377080399137 -0.3777938320808514 0
          0.48850658752798637 0.10658946449702154 0 -0.1679780254552758 -0.4709388314464488 0
          0.49404955766417613 -0.07690926193789606 0 -0.0612796958541625 0.49623059042749607 0
          0.20658388685422233 -0.4553274620448473 0 -0.2951767195196541 -0.40357242751904576 0
          -0.499800106498168 0.014136956688763407 0 0.33509047382430546 -0.3710988740918011 0
          -0.23627392090681335 0.44065250969365977 0 -0.424934552265103 0.26349691894072774 0
          0.38657477772365345 0.31711187493991444 0 0.3941567635391416 0.30763687320662525 0
          0.49855703515893085 0.03795896064879254 0 -0.3443510347965557 0.36252222667657397 0
          -0.4116590022930923 0.28379017923644895 0 -0.4997700027956117 -0.01516391458939014 0
          0.40038713363530987 0.29948312676893923 0 0.37519700124712935 0.33049540126174465 0
          -0.2499363562866789 -0.4330494403715796 0 0.2207524439937153 0.4486294222081311 0
          0.09455392085541862 -0.4909781624989723 0 0.4997284940152853 0.01647520164413632 0
          -0.4388574032982651 0.23959169345013592 0 0.49075173088904744 0.09572219507201024 0
          0.3660011539841344 -0.34065107556307805 0 -0.3945944404752627 -0.3070752799331369 0
          0.012843432920289197 0.49983501901209565 0 -0.49467472066762447 0.07277994732347438 0
          -0.3311455024115611 0.374623352492333 0 0.2937002051073932 0.4046482293546768 0
          -0.01369356017792499 -0.49981245123511436 0 0.1162242963653148 0.4863043418831334 0
          0.19786438281989113 0.45918371705811123 0 -0.016440247387675147 -0.4997296451741002 0
          <InformationKey name="L2_NORM_RANGE" location="vtkDataArray" length="2">
            <Value index="0">
              0.5
            </Value>
            <Value index="1">
              0.5
            </Value>
          </InformationKey>
        </DataArray>
        <DataArray type="Float64" Name="radius" format="ascii" RangeMin="1" RangeMax="1">
          1 1 1 1 1 1
          1 1 1 1 1 1
          1 1 1 1 1 1
          1 1 1 1 1 1
          1 1 1 1 1 1
          1 1 1 1 1 1
          1 1 1 1 1 1
          1 1 1 1 1 1
          1 1 1 1 1 1
          1 1 1 1 1 1
          1 1 1 1 1 1
          1 1 1 1 1 1
          1 1 1 1 1 1
          1 1 1 1 1 1
          1 1 1 1 1 1
          1 1 1 1 1 1
          1 1 1 1 1 1
          1 1 1 1 1 1
          1 1 1 1 1 1
          1 1 1 1 1 1
          1 1 1 1 1 1
          1 1 1 1 1 1
          1 1 1 1 1 1
          1 1 1 1 1 1
          1 1 1 1 1 1
          1 1 1 1
        </DataArray>
      </PointData>
      <CellData>
      </CellData>
      <Points>
        <DataArray type="Float32" Name="Points" NumberOfComponents="3" format="ascii" RangeMin="2.916711079071084" RangeMax="67.22092374340227">
          -37.54692077636719 33.820396423339844 0 46.87919235229492 -28.04932403564453 0
          -19.635543823242188 4.215087890625 0 -31.306894302368164 49.6306037902832 0
          48.71772003173828 46.31669616699219 0 22.539718627929688 48.95842361450195 0
          -39.57136535644531 29.587942123413086 0 -19.95852279663086 -50.425743103027344 0
          -38.880550384521484 13.618070602416992 0 37.45252990722656 0.7221463322639465 0
          29.8946533203125 -13.5122652053833 0 -28.62297248840332 18.318479537963867 0
          -10.855262756347656 23.6882381439209 0 -3.1584532260894775 -7.62389612197876 0
          -32.336395263671875 -19.55962562561035 0 28.97294044494629 -18.71963882446289 0
          36.97930145263672 -35.41254806518555 0 49.18067932128906 31.34459686279297 0
          -37.76693344116211 26.308414459228516 0 -1.5701566934585571 15.549080848693848 0
          -38.010101318359375 -28.81888198852539 0 -44.873741149902344 -46.349510192871094 0
          -8.884148597717285 -4.17531156539917 0 -1.1243956089019775 30.08397674560547 0
          42.040000915527344 30.80939483642578 0 20.99444580078125 -49.46442413330078 0
          20.438228607177734 14.686829566955566 0 -4.280302047729492 27.23121452331543 0
          7.921207904815674 37.6578483581543 0 30.88233184814453 -47.733856201171875 0
          32.57681655883789 32.583438873291016 0 43.94478225708008 -8.788674354553223 0
          -7.400728702545166 7.816476821899414 0 -34.234737396240234 26.97984504699707 0
          -26.275415420532227 31.353574752807617 0 49.89081954956055 -17.46323585510254 0
          -20.326854705810547 -48.70976638793945 0 -28.97526741027832 40.512428283691406 0
          34.64788818359375 45.6611442565918 0 27.58951187133789 49.27206802368164 0
          -43.32638931274414 29.751182556152344 0 9.50101375579834 23.96855354309082 0
          19.277727127075195 18.055877685546875 0 -10.550250053405762 5.696845531463623 0
          -29.551279067993164 2.1180806159973145 0 -9.411493301391602 -14.972251892089844 0
          9.464800834655762 -13.437929153442383 0 46.74776840209961 -34.83076477050781 0
          -10.786149024963379 -11.446527481079102 0 22.31180191040039 -11.435704231262207 0
          42.4022216796875 -6.473057270050049 0 35.11861801147461 12.060140609741211 0
          -37.28801727294922 -2.705892324447632 0 -15.766040802001953 3.4546971321105957 0
          21.527599334716797 48.52202606201172 0 22.024938583374023 41.82109832763672 0
          1.3349583148956299 6.057741641998291 0 0.3264777362346649 -3.668436050415039 0
          4.812648773193359 -5.5606184005737305 0 34.73603439331055 10.853292465209961 0
          0.4886152446269989 47.5683708190918 0 -46.91168975830078 47.68418502807617 0
          -13.578064918518066 17.808013916015625 0 -15.240355491638184 35.52414321899414 0
          -45.59092330932617 15.782296180725098 0 24.626867294311523 -36.02291488647461 0
          48.082786560058594 -40.117530822753906 0 -22.211992263793945 29.994873046875 0
          -42.39768600463867 12.90635871887207 0 -49.11085891723633 18.753128051757812 0
          2.7687768936157227 -5.889779090881348 0 -30.021278381347656 -35.62281036376953 0
          -11.089422225952148 26.690288543701172 0 -46.6829719543457 -24.472942352294922 0
          1.5100572109222412 32.97784423828125 0 47.4770622253418 32.29446792602539 0
          -19.398292541503906 -44.2016487121582 0 -24.38843536376953 3.6483330726623535 0
          39.458282470703125 -14.957581520080566 0 -47.51066589355469 -33.3353385925293 0
          37.7635498046875 -29.521358489990234 0 -23.003843307495117 -0.9844292402267456 0
          -28.0267391204834 -0.3825279176235199 0 44.80922317504883 15.263927459716797 0
          26.63297462463379 -6.753747463226318 0 4.5527472496032715 -44.32423782348633 0
          -17.1340389251709 -9.206801414489746 0 40.42469787597656 31.409114837646484 0
          -24.71327018737793 -36.453372955322266 0 -1.68360435962677 -11.592010498046875 0
          21.395675659179688 -21.246801376342773 0 12.064839363098145 31.357481002807617 0
          -18.565427780151367 -11.90875244140625 0 -14.927032470703125 31.55352210998535 0
          17.476221084594727 -12.312263488769531 0 -4.3178558349609375 -19.600561141967773 0
          40.653194427490234 -1.4306007623672485 0 25.312498092651367 -38.6530647277832 0
          -10.367505073547363 37.42998123168945 0 -13.0845947265625 42.16743850708008 0
          5.16063928604126 -36.275634765625 0 -30.00323486328125 45.07255935668945 0
          49.919647216796875 -26.59756088256836 0 -48.295372009277344 -11.29374885559082 0
          28.438257217407227 -2.902585983276367 0 4.213552951812744 -48.22181701660156 0
          39.679080963134766 -29.96673583984375 0 38.51054000854492 -5.551146030426025 0
          -34.56816101074219 -25.768272399902344 0 29.32183837890625 -2.845010280609131 0
          -41.05475616455078 14.644054412841797 0 13.951786994934082 8.124977111816406 0
          22.293188095092773 -14.832626342773438 0 18.44542694091797 21.13988494873047 0
          -33.629005432128906 -36.27455139160156 0 -4.930009841918945 -45.952064514160156 0
          29.841476440429688 -33.00604248046875 0 32.592262268066406 -16.758739471435547 0
          16.05055046081543 -8.202347755432129 0 27.651416778564453 -38.69293975830078 0