<?xml version="1.0"?>
<VTKFile type="PolyData" version="0.1" byte_order="LittleEndian" header_type="UInt32" compressor="vtkZLibDataCompressor">
  <PolyData>
    <Piece NumberOfPoints="154" NumberOfVerts="0" NumberOfLines="0" NumberOfStrips="0" NumberOfPolys="0">
      <PointData>
        <DataArray type="Int32" Name="id" format="ascii" RangeMin="0" RangeMax="153">
          0 1 2 3 4 5
          6 7 8 9 10 11
          12 13 14 15 16 17
          18 19 20 21 22 23
          24 25 26 27 28 29
          30 31 32 33 34 35
          36 37 38 39 40 41
          42 43 44 45 46 47
          48 49 50 51 52 53
          54 55 56 57 58 59
          60 61 62 63 64 65
          66 67 68 69 70 71
          72 73 74 75 76 77
          78 79 80 81 82 83
          84 85 86 87 88 89
          90 91 92 93 94 95
          96 97 98 99 100 101
          102 103 104 105 106 107
          108 109 110 111 112 113
          114 115 116 117 118 119
          120 121 122 123 124 125
          126 127 128 129 130 131
          132 133 134 135 136 137
          138 139 140 141 142 143
          144 145 146 147 148 149
          150 151 152 153
        </DataArray>
        <DataArray type="Float64" Name="director" NumberOfComponents="3" format="ascii" RangeMin="0.9999999999999999" RangeMax="1">
          -0.9217667864582276 -0.3877447502964705 0 -0.12064459554981448 -0.9926957648567972 0
          -0.3654900032551439 -0.9308152649804121 0 0.03445691136399417 0.9994061843210966 0
          -0.2965964946653885 0.955002889708824 0 0.9089787447057204 0.4168424662545945 0
          0.9864830653068998 -0.1638632413407681 0 0.9494452425429715 0.313932686116814 0
          0.99237952934766 0.12321878806300939 0 -0.46861967645640257 -0.8834000219820557 0
          -0.823723179295531 0.5669921726895907 0 -0.9515985045555061 -0.30734392157276247 0
          0.1843497799393016 -0.9828607015423554 0 -0.2438223424378002 0.969819913864499 0
          0.8323460574427872 0.5542562951013261 0 0.9603206272652424 0.2788983557658442 0
          -0.7239941669457375 -0.6898060932092059 0 -0.9809182525360207 0.1944206312140756 0
          0.9092142507133546 -0.41632853169072276 0 -0.9999876457508222 0.004970749010774398 0
          0.8178804310250088 0.5753882172467089 0 0.885620414148079 -0.4644098212184849 0
          -0.6137733391272043 -0.7894822912368851 0 0.6892398465592339 0.7245332524563685 0
          -0.9512686208453702 -0.3083634397832324 0 -0.6031792242376951 0.7976056816798713 0
          0.997294706535145 -0.07350692699997106 0 0.9868256163268153 -0.16178752412099393 0
          -0.9178563261906416 -0.39691279202340984 0 0.04793212215898942 -0.9988505952670478 0
          0.7101399914620418 0.7040605034556982 0 -0.9965671244762891 0.08278868529612228 0
          -0.980854779236048 0.1947406019550199 0 0.20746324690235288 0.9782428129992744 0
          0.9383800043910526 -0.3456052189406983 0 0.1968498254905686 0.9804336521174356 0
          0.7151559602650974 0.6989649150689228 0 -0.1194806493817228 -0.992836529557269 0
          -0.9990999106878988 0.04241896348842886 0 0.8969097751009392 -0.44221358564429325 0
          -0.044609832437917565 0.9990044859007696 0 0.5823761136159372 -0.8129194685143154 0
          0.742361039778517 -0.6700000646410111 0 -0.9932853624553935 -0.11569005459354617 0
          0.27048536472418294 0.9627240868857628 0 -0.6619170293075586 0.7495771116520679 0
          0.8204386506915889 -0.5717345716775967 0 -0.5859264415777676 0.8103642422145827 0
          -0.16909584984737233 -0.9855996111831593 0 -0.9972738816833945 0.07378892133738531 0
          0.6593944390250694 -0.7517971626594596 0 0.7709626999295404 -0.6368802990494787 0
          0.9267410713144473 -0.37570066108399447 0 0.38748426459547136 0.9218763174585335 0
          -0.5090190941975112 0.860755227542851 0 -0.9650311892372305 0.26213508692919496 0
          -0.980858875160893 -0.19471997077369255 0 0.49727692858021777 0.8675918719662057 0
          -0.38102237956176505 -0.9245658150035022 0 0.663734286524812 -0.7479684464543934 0
          -0.7067982770543215 -0.7074151507799663 0 -0.6051316799606117 -0.7961253983563443 0
          -0.6733973293739447 -0.7392807564058725 0 0.8784722142998568 -0.4777934372750493 0
          0.7621668495612878 -0.6473806402958164 0 -0.9829832477913578 -0.18369522193446938 0
          0.9512470862739324 -0.30842986375406956 0 -0.9372601027018815 -0.3486308934722489 0
          -0.7437575280245619 0.6684495040814924 0 0.9880839950239731 -0.15391562226578884 0
          -0.12387857262319207 0.9922973844794919 0 -0.10699878101431104 0.9942591517614768 0
          0.024095656905259753 0.9997096575097711 0 0.361408560522729 0.9324075570161843 0
          -0.09357967749156933 -0.9956117938034753 0 -0.8851591447788811 -0.46528839273543 0
          -0.8880181105838262 -0.45980847673257547 0 0.7517973491762555 -0.6593942263711106 0
          -0.5661524628285319 0.8243005452098087 0 0.5476225862773233 -0.8367254645335802 0
          -0.857769285512664 0.5140348751116932 0 0.8326091532676124 -0.5538609914906352 0
          -0.44245179141154917 -0.8967922904868836 0 -0.9940228918835824 -0.10917183891187292 0
          -0.9603291636939385 -0.27886896090978036 0 0.12140520693345667 0.9926030302842344 0
          -0.9330458920979904 -0.3597573671783044 0 0.4854066581725665 -0.8742884971230842 0
          0.8397761616133183 -0.5429327751996575 0 -0.11718616176464122 0.9931099654574368 0
          -0.44442058937730683 -0.8958182515094941 0 -0.8520529493727612 -0.5234556060117981 0
          -0.942348037987532 -0.33463439049363863 0 0.38712759932033236 -0.9220261503040336 0
          0.34241953055329577 0.9395471595910769 0 0.9989704930752388 0.04536467750369648 0
          -0.9557727568763971 0.2941061665672644 0 0.8942234323956906 -0.4476208808293797 0
          -0.8767797907445896 -0.4808920861709763 0 0.7528375996606488 -0.6582063115294419 0
          -0.5872954094601703 0.8093726595499818 0 0.5944739541736361 -0.8041148660540741 0
          -0.6353824605563557 -0.7721975970030929 0 0.9348719135227122 -0.35498521843364483 0
          -0.6949960852980908 0.7190135196366818 0 -0.9889473336393363 0.14826722931129196 0
          0.9681775910661413 0.2502641647486983 0 0.6828420082910098 -0.7305660762128915 0
          0.45938293308043415 -0.8882383243220354 0 -0.9382108021158839 -0.34606428708127296 0
          -0.45446485579116025 0.8907646686138376 0 -0.3309474698814127 -0.9436491785505308 0
          0.39796764836611753 -0.9173994499965336 0 0.8741201683297779 -0.48570971919359485 0
          0.27852260917977023 -0.960429672685977 0 0.16720135316543355 -0.9859227695411279 0
          -0.5782544579002448 -0.815856471395854 0 -0.8089950994785614 -0.58781538685175 0
          -0.94629435492954 0.32330634671853553 0 0.22116371373536592 -0.975236695231871 0
          0.894042120230385 0.44798290955566367 0 0.4337764764134373 -0.9010205150330056 0
          0.3222506222026512 -0.9466543912590297 0 -0.09466799765818623 0.9955089001206316 0
          0.5830992320152862 -0.8124009389600577 0 -0.24952658699630131 -0.9683679478287048 0
          -0.9865992054876238 -0.16316251938233042 0 0.8078559173392966 -0.5893800275033788 0
          -0.8222977712912541 0.5690574446656824 0 -0.9796088082879516 0.20091436664574108 0
          0.23292278564371963 0.972495231827884 0 0.6408376957201505 0.7676763951979296 0
          0.8404018387370188 0.5419637897935967 0 -0.9544537052930168 0.29835905290845643 0
          -0.697129082169314 0.716945634475704 0 -0.9502886724520706 -0.3113702603160444 0
          0.4856234225413387 0.8741681139684954 0 0.8689318073814349 0.4949318277508861 0
          -0.8890215613330947 -0.45786533335126656 0 0.5954644847214866 0.8033816324981388 0
          0.4567899236182794 -0.8895745981539752 0 0.997547163632643 0.0699975451603062 0
          -0.9276747316540108 0.3733893306599147 0 0.9197473125651979 0.3925109947875296 0
          0.9988425271302642 0.0480999583786455 0 -0.75462354257539 -0.6561579908764112 0
          0.3845996919312632 0.923083461538759 0 -0.9188144591482231 0.3946897384784131 0
          -0.8171597738210601 0.5764112282465652 0 0.653069494172068 0.7572979834793164 0
          0.5034245457237101 -0.8640391928395819 0 0.3467520494562014 0.9379568306686209 0
          0.5514119194402314 0.8342331179587872 0 0.13178017781499643 -0.991278964134238 0
          <InformationKey name="L2_NORM_RANGE" location="vtkDataArray" length="2">
            <Value index="0">
              1
            </Value>
            <Value index="1">
              1
            </Value>
          </InformationKey>
        </DataArray>
        <DataArray type="Float64" Name="velocity" NumberOfComponents="3" format="ascii" RangeMin="2.98391528750295" RangeMax="65.61664053985334">
          20.472372037415383 -30.489259884928693 0 -7.778161120144524 43.605506408926914 0
          -35.778279556590725 14.318100471258902 0 -2.7267860528004704 -6.306708942777526 0
          -25.56803597993237 0.5919415230237348 0 40.69440930810454 -42.34960265147567 0
          21.390392053252754 11.720491675449018 0 -31.091580543867785 -10.301819378431787 0
          -22.233594277397 35.80993014386058 0 40.8936574712134 11.727908496204755 0
          -31.918129728714472 1.502371966558826 0 32.46317064138093 -14.067556233339687 0
          31.61170207931397 -20.66117562390716 0 -32.788218903188394 -0.7210412736466054 0
          -30.467523066969363 36.43074923190564 0 -29.58028331655805 11.627227611362315 0
          37.80505508071815 -10.753091333426255 0 44.65772551607054 -33.330173144632525 0
          47.18774005931614 6.396489460552942 0 9.836891189866492 -36.87781496106794 0
          6.677739541459459 5.438027088135769 0 -18.951003944933063 -37.93510690561732 0
          23.77908201111339 -25.727634747998636 0 32.285914726045576 -31.45240287607238 0
          -18.732306147503376 38.172541468590836 0 17.42129460906331 23.929755673071398 0
          -43.74567596165927 -36.843843838172035 0 -41.00470913383489 -49.1685554695042 0
          -4.3489588147394045 13.430332075080756 0 2.9762992276979077 -0.21305715242312573 0
          -16.420210149222868 -24.717665071237764 0 -26.63245586108499 -32.68369682188443 0
          9.59810303037343 22.68931438280859 0 37.757309281314306 20.71597266757422 0
          -26.523439665569285 -2.200425364398683 0 -48.17882370239545 24.733119867345934 0
          15.472358145094617 -42.19330576503555 0 -2.7230899171649696 49.647506705142575 0
          3.209752212846098 39.943600631846664 0 27.290092728339346 -29.624030405099575 0
          40.710862227344634 -12.518743865476708 0 34.808888796398136 -17.330075407408792 0
          -17.326333983387784 15.921061981020685 0 8.676498234140595 -45.101679767889145 0
          26.99656655139428 -0.8247828969564566 0 -1.181598492863479 -7.087342925864128 0
          -10.527228461045638 27.645380145270124 0 47.47543864880045 24.850515939083976 0
          13.45020038299144 -42.781974126121774 0 13.33632968921519 2.89206325620421 0
          -20.383234879262602 -17.467213088655853 0 13.111992425538233 49.45054225750374 0
          1.6047826830209004 22.445391370448775 0 -25.442525168919026 -16.766088433362327 0
          24.860911549332883 18.296648546241826 0 18.127137052491975 -42.11576276898946 0
          -4.106371249565804 19.81468592825003 0 -43.2115168522386 -43.085994704941484 0
          2.7042817825837204 -23.795120132132308 0 -1.6624837545658195 -36.91945356486498 0
          -40.55592314206473 -37.96183180819797 0 46.98372058379586 25.62816454897687 0
          -23.182362140209666 22.4905983535036 0 -8.42374893276238 -2.5281598168396826 0
          -44.45585735866184 11.374414308737222 0 -0.9380815156004232 40.44748670579848 0
          43.5214270198436 41.82766196839604 0 -19.617472876146607 29.010177679462174 0
          -27.377259211045168 -5.104813753149479 0 1.0108912986547693 -26.93680745999526 0
          21.18807799653547 48.4452609761332 0 15.521324819791857 -22.733301715898534 0
          -3.0984436752635744 -49.699879474370995 0 -5.357606698271908 47.09441502974741 0
          -19.533649987483585 -28.48909553641595 0 -25.241492794096537 30.645102659141713 0
          -1.3628901407151872 -9.249808436218693 0 -28.437070584076316 4.0252086974848424 0
          22.302423751473526 -21.630608392707323 0 4.286209731170565 25.592468486596516 0
          -16.80227135673981 30.176297340482108 0 35.70724318896097 -48.51082997011254 0
          38.494266527440914 9.308694076898924 0 -41.37827709570729 42.48759424258512 0
          41.371957205314274 48.07567751376408 0 40.00221093710812 44.971458396046486 0
          43.45219546574209 -49.16757290067578 0 27.77940311086799 -47.40411222574361 0
          8.787704962513757 14.978077069606684 0 -17.176354508003442 -38.89206379839693 0
          -37.572734230027905 47.39150589914381 0 3.322947059262674 16.230028184641725 0
          20.82576325094061 -43.12614201683975 0 -29.404442159877867 -6.6570323329381935 0
          -48.88074135310182 -43.07374742736768 0 -15.693819004659524 -18.776991949103287 0
          49.2742614956165 -23.093566379026992 0 35.70662412955289 -14.438908494432013 0
          24.676827977366614 34.48562696853686 0 -28.28613766609157 46.49521791482232 0
          21.219265309149932 48.266786794162286 0 25.989900495501132 -30.673962513745963 0
          -14.741048879365302 -30.369965831724773 0 33.206792723445574 45.25947670903301 0
          26.73700517552618 36.1968809297727 0 -4.433626259916984 -16.731616061562868 0
          33.82599634129042 5.430878965379037 0 -37.91344272052366 -28.781627030961573 0
          -0.8760744559602713 -9.034520229977083 0 25.951148963832622 -14.29357740625877 0
          27.17860558051683 48.15404052238152 0 34.61617221348607 33.462162550860555 0
          -13.28055184508198 -44.93740558320786 0 47.55616001461492 34.25892934866374 0
          36.946038841117556 -42.45015674570037 0 -46.76239316488481 11.393180618063838 0
          23.568028568935404 11.552780427737098 0 16.263007945057282 45.12644264060411 0
          -23.411248530157515 41.93857265065735 0 -38.160345232049345 -18.69342940760771 0
          37.21153998486223 -26.635630373860984 0 30.80584946405935 5.653176675427417 0
          44.35923105765637 0.370346282237378 0 16.64168251311186 -34.7034267378138 0
          47.322877480901255 13.376690736606477 0 -32.1350217035443 -42.58571958176201 0
          -0.5025219679409361 28.59799073613067 0 -3.5320261053794297 38.30316610148137 0
          14.736889949280638 40.32409694969634 0 -49.402638529229115 19.356180838194604 0
          8.508964450503598 -39.46387075781778 0 49.03198966734128 -27.000797471280585 0
          -16.70921662991016 18.938285128010065 0 46.14207459237997 -27.3400906744995 0
          42.424140585792586 37.62461911345025 0 -6.825547086494495 -2.911259141055119 0
          6.210247997996007 33.76154121673389 0 -35.16911208657487 13.927818279591207 0
          49.5593687100304 13.93941034113417 0 -6.0481675260535965 -47.161165000275155 0
          -41.68490984500472 3.0367185203014984 0 28.200151364646487 23.664522522360798 0
          -30.983903256438072 -23.817273645282434 0 -4.775523168997552 -3.9973115200368454 0
          17.36371431475763 -32.304692769073746 0 -31.21691646176371 -40.35131875297581 0
          -17.61253928181918 -32.96735050248542 0 -47.52659271635095 33.064298464373394 0
          -25.51716157275273 -35.79649925661745 0 -34.4558032257712 -19.698927528483058 0
          -46.64276824331557 -9.071061809886274 0 28.312364537561464 -5.662808823633235 0
          -48.25117889494449 -21.421563451189467 0 45.139670111270334 -32.86849758057289 0
          <InformationKey name="L2_NORM_RANGE" location="vtkDataArray" length="2">
            <Value index="0">
              2.9839152875
            </Value>
            <Value index="1">
              65.61664054
            </Value>
          </InformationKey>
        </DataArray>
        <DataArray type="Float64" Name="force" NumberOfComponents="3" format="ascii" RangeMin="0.49999999999999994" RangeMax="0.5">
          -0.4608833932291138 -0.19387237514823524 0 -0.06032229777490724 -0.4963478824283986 0
          -0.18274500162757196 -0.46540763249020606 0 0.017228455681997084 0.4997030921605483 0
          -0.14829824733269426 0.477501444854412 0 0.4544893723528602 0.20842123312729724 0
          0.4932415326534499 -0.08193162067038405 0 0.47472262127148573 0.156966343058407 0
          0.49618976467383 0.06160939403150469 0 -0.23430983822820128 -0.44170001099102785 0
          -0.4118615896477655 0.28349608634479534 0 -0.47579925227775305 -0.15367196078638123 0
          0.0921748899696508 -0.4914303507711777 0 -0.1219111712189001 0.4849099569322495 0
          0.4161730287213936 0.27712814755066306 0 0.4801603136326212 0.1394491778829221 0
          -0.36199708347286874 -0.34490304660460297 0 -0.49045912626801036 0.0972103156070378 0
          0.4546071253566773 -0.20816426584536138 0 -0.4999938228754111 0.002485374505387199 0
          0.4089402155125044 0.2876941086233544 0 0.4428102070740395 -0.23220491060924245 0
          -0.30688666956360217 -0.39474114561844253 0 0.34461992327961694 0.36226662622818423 0
          -0.4756343104226851 -0.1541817198916162 0 -0.30158961211884755 0.39880284083993567 0
          0.4986473532675725 -0.03675346349998553 0 0.49341280816340766 -0.08089376206049696 0
          -0.4589281630953208 -0.19845639601170492 0 0.02396606107949471 -0.4994252976335239 0
          0.3550699957310209 0.3520302517278491 0 -0.4982835622381446 0.04139434264806114 0
          -0.490427389618024 0.09737030097750995 0 0.10373162345117644 0.4891214064996372 0
          0.4691900021955263 -0.17280260947034914 0 0.0984249127452843 0.4902168260587178 0
          0.3575779801325487 0.3494824575344614 0 -0.0597403246908614 -0.4964182647786345 0
          -0.4995499553439494 0.02120948174421443 0 0.4484548875504696 -0.22110679282214662 0
          -0.022304916218958783 0.4995022429503848 0 0.2911880568079686 -0.4064597342571577 0
          0.3711805198892585 -0.33500003232050557 0 -0.4966426812276967 -0.057845027296773086 0
          0.13524268236209147 0.4813620434428814 0 -0.3309585146537793 0.37478855582603393 0
          0.41021932534579447 -0.28586728583879834 0 -0.2929632207888838 0.40518212110729135 0
          -0.08454792492368617 -0.49279980559157965 0 -0.49863694084169724 0.036894460668692654 0
          0.3296972195125347 -0.3758985813297298 0 0.3854813499647702 -0.31844014952473937 0
          0.46337053565722364 -0.18785033054199723 0 0.19374213229773568 0.46093815872926674 0
          -0.2545095470987556 0.4303776137714255 0 -0.48251559461861526 0.13106754346459748 0
          -0.4904294375804465 -0.09735998538684627 0 0.24863846429010888 0.43379593598310284 0
          -0.19051118978088252 -0.4622829075017511 0 0.331867143262406 -0.3739842232271967 0
          -0.35339913852716076 -0.35370757538998315 0 -0.30256583998030584 -0.39806269917817216 0
          -0.33669866468697235 -0.36964037820293627 0 0.4392361071499284 -0.23889671863752465 0
          0.3810834247806439 -0.3236903201479082 0 -0.4914916238956789 -0.09184761096723469 0
          0.4756235431369662 -0.15421493187703478 0 -0.46863005135094077 -0.17431544673612445 0
          -0.3718787640122809 0.3342247520407462 0 0.4940419975119866 -0.07695781113289442 0
          -0.06193928631159604 0.49614869223974595 0 -0.05349939050715552 0.4971295758807384 0
          0.012047828452629876 0.49985482875488557 0 0.1807042802613645 0.46620377850809214 0
          -0.04678983874578466 -0.49780589690173765 0 -0.44257957238944057 -0.232644196367715 0
          -0.4440090552919131 -0.22990423836628773 0 0.37589867458812776 -0.3296971131855553 0
          -0.28307623141426597 0.41215027260490433 0 0.27381129313866165 -0.4183627322667901 0
          -0.428884642756332 0.2570174375558466 0 0.4163045766338062 -0.2769304957453176 0
          -0.22122589570577458 -0.4483961452434418 0 -0.4970114459417912 -0.05458591945593646 0
          -0.48016458184696925 -0.13943448045489018 0 0.06070260346672834 0.4963015151421172 0
          -0.4665229460489952 -0.1798786835891522 0 0.24270332908628325 -0.4371442485615421 0
          0.4198880808066591 -0.2714663875998288 0 -0.05859308088232061 0.4965549827287184 0
          -0.22221029468865341 -0.44790912575474706 0 -0.4260264746863806 -0.26172780300589904 0
          -0.471174018993766 -0.16731719524681932 0 0.19356379966016618 -0.4610130751520168 0
          0.17120976527664789 0.46977357979553847 0 0.4994852465376194 0.02268233875184824 0
          -0.47788637843819853 0.1470530832836322 0 0.4471117161978453 -0.22381044041468984 0
          -0.4383898953722948 -0.24044604308548814 0 0.3764187998303244 -0.32910315576472093 0
          -0.29364770473008517 0.4046863297749909 0 0.29723697708681807 -0.40205743302703706 0
          -0.31769123027817786 -0.38609879850154644 0 0.4674359567613561 -0.17749260921682242 0
          -0.3474980426490454 0.3595067598183409 0 -0.49447366681966815 0.07413361465564598 0
          0.48408879553307066 0.12513208237434914 0 0.3414210041455049 -0.36528303810644575 0
          0.22969146654021708 -0.4441191621610177 0 -0.46910540105794196 -0.17303214354063648 0
          -0.22723242789558012 0.4453823343069188 0 -0.16547373494070636 -0.4718245892752654 0
          0.19898382418305877 -0.4586997249982668 0 0.43706008416488895 -0.24285485959679742 0
          0.13926130458988512 -0.4802148363429885 0 0.08360067658271678 -0.49296138477056395 0
          -0.2891272289501224 -0.407928235697927 0 -0.4044975497392807 -0.293907693425875 0
          -0.47314717746477 0.16165317335926777 0 0.11058185686768296 -0.4876183476159355 0
          0.4470210601151925 0.22399145477783183 0 0.21688823820671865 -0.4505102575165028 0
          0.1611253111013256 -0.47332719562951486 0 -0.047333998829093116 0.4977544500603158 0
          0.2915496160076431 -0.40620046948002886 0 -0.12476329349815066 -0.4841839739143524 0
          -0.4932996027438119 -0.08158125969116521 0 0.4039279586696483 -0.2946900137516894 0
          -0.41114888564562707 0.2845287223328412 0 -0.4898044041439758 0.10045718332287054 0
          0.11646139282185981 0.486247615913942 0 0.32041884786007524 0.3838381975989648 0
          0.4202009193685094 0.27098189489679836 0 -0.4772268526465084 0.14917952645422822 0
          -0.348564541084657 0.358472817237852 0 -0.4751443362260353 -0.1556851301580222 0
          0.24281171127066936 0.4370840569842477 0 0.43446590369071747 0.24746591387544306 0
          -0.44451078066654737 -0.22893266667563328 0 0.2977322423607433 0.4016908162490694 0
          0.2283949618091397 -0.4447872990769876 0 0.4987735818163215 0.0349987725801531 0
          -0.4638373658270054 0.18669466532995735 0 0.45987365628259896 0.1962554973937648 0
          0.4994212635651321 0.02404997918932275 0 -0.377311771287695 -0.3280789954382056 0
          0.1922998459656316 0.4615417307693795 0 -0.45940722957411156 0.19734486923920655 0
          -0.40857988691053004 0.2882056141232826 0 0.326534747086034 0.3786489917396582 0
          0.25171227286185505 -0.43201959641979093 0 0.1733760247281007 0.46897841533431045 0
          0.2757059597201157 0.4171165589793936 0 0.06589008890749821 -0.495639482067119 0
          <InformationKey name="L2_NORM_RANGE" location="vtkDataArray" length="2">
            <Value index="0">
              0.5
            </Value>
            <Value index="1">
              0.5
            </Value>
          </InformationKey>
        </DataArray>
        <DataArray type="Float64" Name="radius" format="ascii" RangeMin="1" RangeMax="1">
          1 1 1 1 1 1
          1 1 1 1 1 1
          1 1 1 1 1 1
          1 1 1 1 1 1
          1 1 1 1 1 1
          1 1 1 1 1 1
          1 1 1 1 1 1
          1 1 1 1 1 1
          1 1 1 1 1 1
          1 1 1 1 1 1
          1 1 1 1 1 1
          1 1 1 1 1 1
          1 1 1 1 1 1
          1 1 1 1 1 1
          1 1 1 1 1 1
          1 1 1 1 1 1
          1 1 1 1 1 1
          1 1 1 1 1 1
          1 1 1 1 1 1
          1 1 1 1 1 1
          1 1 1 1 1 1
          1 1 1 1 1 1
          1 1 1 1 1 1
          1 1 1 1 1 1
          1 1 1 1 1 1
          1 1 1 1
        </DataArray>
      </PointData>
      <CellData>
      </CellData>
      <Points>
        <DataArray type="Float32" Name="Points" NumberOfComponents="3" format="ascii" RangeMin="1.8375931859956716" RangeMax="68.09971782470976">
          -36.686424255371094 33.62620544433594 0 47.14784240722656 -27.701446533203125 0
          -19.184885025024414 4.473125457763672 0 -31.00225830078125 49.36814498901367 0
          49.727169036865234 46.527198791503906 0 22.611499786376953 48.33095169067383 0
          -38.933284759521484 29.840576171875 0 -20.271617889404297 -49.51496124267578 0
          -38.34275817871094 13.952181816101074 0 37.668190002441406 0.36198505759239197 0
          29.790367126464844 -13.885756492614746 0 -28.705474853515625 18.163925170898438 0
          -10.032124519348145 24.056297302246094 0 -2.8419625759124756 -7.890966415405273 0
          -32.607017517089844 -19.565380096435547 0 29.66082763671875 -18.40659523010254 0
          37.20737075805664 -35.304134368896484 0 49.35056686401367 32.075782775878906 0
          -37.49220275878906 26.40009307861328 0 -0.9972555637359619 16.145166397094727 0
          -37.43596649169922 -28.846864700317383 0 -44.97490310668945 -46.21623611450195 0
          -9.08491039276123 -4.223673343658447 0 -1.2229396104812622 29.277355194091797 0
          42.26497268676758 30.734792709350586 0 20.92717170715332 -49.64189147949219 0
          20.748022079467773 14.408337593078613 0 -4.406272888183594 27.485464096069336 0
          7.438559532165527 37.90835189819336 0 31.084545135498047 -48.193824768066406 0
          32.199310302734375 32.0385856628418 0 44.079078674316406 -8.72703742980957 0
          -7.845494270324707 8.227084159851074 0 -34.263362884521484 26.19260597229004 0
          -26.716703414916992 30.757558822631836 0 48.84288024902344 -16.701364517211914 0
          -20.05548667907715 -48.59755325317383 0 -28.474123001098633 40.72647476196289 0
          35.011749267578125 45.50004196166992 0 28.076345443725586 48.76799774169922 0
          -43.19770050048828 29.17546272277832 0 9.465315818786621 23.388124465942383 0
          19.271530151367188 17.751068115234375 0 -10.871654510498047 6.030916690826416 0
          -29.36208152770996 2.6108787059783936 0 -9.582649230957031 -14.856717109680176 0
          9.518559455871582 -14.465660095214844 0 46.45610809326172 -34.49539566040039 0
          -10.597064018249512 -11.451622009277344 0 22.571300506591797 -11.04150104522705 0
          42.97148895263672 -6.1441216468811035 0 36.11510467529297 11.848360061645508 0
          -37.73120880126953 -2.7749674320220947 0 -16.030765533447266 3.039663314819336 0
          21.348630905151367 48.84436798095703 0 21.94620132446289 41.348472595214844 0
          0.43336156010627747 5.855862617492676 0 0.4004906415939331 -3.5782997608184814 0
          4.741979598999023 -5.229925632476807 0 35.48957061767578 10.37630844116211 0
          0.10827301442623138 47.74644470214844 0 -46.883384704589844 47.791419982910156 0
          -13.526886940002441 17.80906867980957 0 -15.297228813171387 35.51286315917969 0
          -45.377254486083984 15.991389274597168 0 24.948204040527344 -36.75999450683594 0
          48.42155456542969 -40.471351623535156 0 -21.68708610534668 30.29276466369629 0
          -42.63090515136719 12.858811378479004 0 -49.283905029296875 18.08616065979004 0
          3.356081247329712 -5.894583225250244 0 -29.93943214416504 -35.99123764038086 0
          -11.686753273010254 26.22174072265625 0 -45.664398193359375 -24.589767456054688 0
          0.6132700443267822 32.59953689575195 0 48.32361602783203 32.28148651123047 0
          -19.625835418701172 -44.92390441894531 0 -25.120708465576172 4.337222576141357 0
          38.78386688232422 -15.700483322143555 0 -47.01992416381836 -33.56208419799805 0
          37.887168884277344 -29.060134887695312 0 -22.855342864990234 -0.7376085519790649 0
          -27.62073516845703 -1.0443756580352783 0 45.39177322387695 15.19062328338623 0
          25.696800231933594 -6.482829570770264 0 5.294229984283447 -44.45934295654297 0
          -17.51934051513672 -9.735753059387207 0 40.799007415771484 30.809995651245117 0
          -24.148380279541016 -36.715545654296875 0 -0.8411060571670532 -11.982565879821777 0
          21.574071884155273 -21.298553466796875 0 12.311240196228027 30.839153289794922 0
          -18.936351776123047 -11.580036163330078 0 -15.572710037231445 31.611980438232422 0
          16.81074333190918 -12.241931915283203 0 -4.210718154907227 -19.69574546813965 0
          40.9675407409668 -1.0525047779083252 0 25.738014221191406 -39.22759246826172 0
          -10.61194133758545 37.01511001586914 0 -14.055594444274902 41.7684326171875 0
          4.398855686187744 -35.786346435546875 0 -30.123878479003906 44.92963409423828 0
          49.10230255126953 -26.023164749145508 0 -48.43866729736328 -11.236144065856934 0
          28.106067657470703 -2.0467965602874756 0 4.064789295196533 -48.15391159057617 0
          39.97034454345703 -30.369821548461914 0 38.76207733154297 -5.858847618103027 0
          -34.94112014770508 -25.97715950012207 0 29.978391647338867 -2.749133348464966 0
          -41.144535064697266 14.45986270904541 0 13.486186027526855 8.520795822143555 0
          22.721956253051758 -14.64880084991455 0 18.03316307067871 20.923063278198242 0
          -33.634613037109375 -36.787071228027344 0 -5.037436485290527 -45.99885559082031 0
          29.699953079223633 -33.391014099121094 0 33.33553695678711 -17.336015701293945 0
          15.78420639038086 -8.200662612915039 0 27.826927185058594 -38.95647048950195 0