<?xml version="1.0"?>
<VTKFile type="PolyData" version="0.1" byte_order="LittleEndian" header_type="UInt32" compressor="vtkZLibDataCompressor">
  <PolyData>
    <Piece NumberOfPoints="154" NumberOfVerts="0" NumberOfLines="0" NumberOfStrips="0" NumberOfPolys="0">
      <PointData>
        <DataArray type="Int32" Name="id" format="ascii" RangeMin="0" RangeMax="153">
          0 1 2 3 4 5
          6 7 8 9 10 11
          12 13 14 15 16 17
          18 19 20 21 22 23
          24 25 26 27 28 29
          30 31 32 33 34 35
          36 37 38 39 40 41
          42 43 44 45 46 47
          48 49 50 51 52 53
          54 55 56 57 58 59
          60 61 62 63 64 65
          66 67 68 69 70 71
          72 73 74 75 76 77
          78 79 80 81 82 83
          84 85 86 87 88 89
          90 91 92 93 94 95
          96 97 98 99 100 101
          102 103 104 105 106 107
          108 109 110 111 112 113
          114 115 116 117 118 119
          120 121 122 123 124 125
          126 127 128 129 130 131
          132 133 134 135 136 137
          138 139 140 141 142 143
          144 145 146 147 148 149
          150 151 152 153
        </DataArray>
        <DataArray type="Float64" Name="director" NumberOfComponents="3" format="ascii" RangeMin="0.9999999999999999" RangeMax="1">
          -0.9837722425548343 -0.1794217789975126 0 0.17040713015642975 -0.9853737412737613 0
          -0.8476437892576782 -0.5305657419518196 0 -0.09912055372946568 0.995075432230323 0
          -0.9826116530651957 0.18567266697196816 0 0.03596702121778973 0.9993529773732197 0
          0.964054066338645 0.2657061481711016 0 0.7815903388038375 0.6237920665482228 0
          0.8818208027558774 -0.47158463909141485 0 -0.5689545594138846 -0.8223689617940068 0
          -0.7343839754551793 0.6787342459274076 0 -0.9919482322319825 -0.12664400724805308 0
          -0.1262874276955162 -0.9919936923217051 0 -0.5866080073045127 0.8098710056337545 0
          0.8695194713972932 0.49389866254219766 0 0.9999990745189382 -0.0013605003737553704 0
          -0.8775573250339409 -0.4794717314704529 0 -0.8748603288486073 0.48437527291027843 0
          0.8232458392908796 -0.5676850254236545 0 -0.9984447511726097 -0.055750146689183606 0
          0.7854418995764915 0.6189353943584682 0 0.6082585670633185 -0.7937389467539554 0
          -0.958852769073428 -0.28390379927049114 0 0.7314856239967112 0.6818568631950125 0
          -0.955884195629961 -0.29374377362739557 0 -0.7496740384407313 0.661807249951196 0
          0.8742840738679416 -0.4854146250174954 0 0.8791915048825566 0.47646856952200467 0
          -0.9999749738400913 -0.00707472215064759 0 -0.5285234621284559 -0.8489186945637083 0
          0.5216655610111385 0.853150070301195 0 -0.9965443253588138 -0.08306267269445791 0
          -0.9870010523309981 0.1607137912486117 0 0.24261994445191898 0.9701214163980444 0
          0.9830597796952665 -0.18328521365755132 0 -0.14715790572134171 0.9891130121395172 0
          0.7373330335852657 0.6755294202208735 0 -0.6679528460522182 -0.744203598117304 0
          -0.8514037877426528 -0.5245108103914197 0 0.9666932627836546 0.2559377574503068 0
          -0.4656427999577926 0.8849727582516126 0 0.7744595916605659 -0.6326233799702233 0
          0.24502785571950675 -0.9695160390223055 0 -0.9989240660014269 -0.0463757518879958 0
          0.7543915780413268 0.6564246696920497 0 -0.9406181815718319 0.3394663996576102 0
          0.5968075307903883 -0.8023844285577081 0 -0.9977985488310751 0.06631784036441951 0
          -0.6458536240431821 -0.7634612605170533 0 -0.67174396145594 0.7407834030588704 0
          0.8684405112880406 -0.4957933827248673 0 0.9856645377743167 -0.16871697891481652 0
          0.9758297396650571 -0.21853219256033374 0 0.05073192458193437 0.9987123068372658 0
          -0.16853251420374027 0.9856960949786532 0 -0.9961597713920661 -0.08755403965612658 0
          -0.865630728588301 -0.5006829752684697 0 0.12976790121624066 0.9915443972984427 0
          -0.3999005656050555 -0.9165585292979149 0 0.8467182202785195 -0.5320415918406911 0
          -0.9582421070702352 -0.28595815119977935 0 -0.40814384076294025 -0.9129176333313295 0
          -0.8460211087213984 -0.5331494008228986 0 0.9131091106684377 -0.4077152830276231 0
          0.45231068403143493 -0.891860440377874 0 -0.9455941008163352 0.3253487305974107 0
          0.7495982615383783 -0.6618930776935509 0 -0.8947854188099059 -0.4464964213576424 0
          -0.6920171172190837 0.7218810909532047 0 0.98706008510609 -0.16035082909158363 0
          -0.3035144180084895 0.9528268457914942 0 0.1198601375628185 0.9927907873381089 0
          0.19209102779182993 0.981377112552498 0 0.060464423621834115 0.9981703529338464 0
          -0.1769590530219349 -0.9842182143984026 0 -0.9579348559581924 0.28698573438475505 0
          -0.9984325809131672 -0.05596768148737053 0 0.4203273736062478 -0.9073725249296861 0
          -0.5613356065057651 0.8275882653039522 0 -0.21814267474548102 -0.9759168886000935 0
          -0.18602327598022447 0.9825453377801888 0 0.9462332742928609 -0.3234850701670967 0
          -0.5481144316587611 -0.8364033535366733 0 -0.9639205638703628 -0.26619005719192756 0
          -0.9660302850790841 0.25842888443442913 0 0.25053908451422946 0.9681064854295585 0
          -0.8738092480022949 -0.486268853727713 0 -0.12763823795900814 -0.9918207903702764 0
          0.9369046212774998 0.3495850835331286 0 0.6204184567412147 0.7842709598951434 0
          0.5112578448609597 -0.859427376843516 0 -0.15592986124158623 -0.9877681298630664 0
          -0.9446696998031868 -0.3280231063107551 0 -0.21660944401933782 -0.9762583411995174 0
          0.13151557571295755 0.9913141042802172 0 0.9973642528909343 0.07255719850785532 0
          -0.7379898966513436 0.674811760745572 0 0.9975202648431308 -0.0703798353741329 0
          -0.8729631703040782 -0.48778612453887304 0 0.9334144114318884 -0.35880013451956977 0
          -0.6331346806419281 0.7740416501509746 0 0.6957569249340253 -0.7182773151132847 0
          -0.9492533327112256 -0.3145124963123583 0 0.9999720113079504 -0.0074817511808581965 0
          -0.5794602881287583 0.8150004751420311 0 -0.8557273413260207 0.5174270164062755 0
          0.8992086359155637 0.4375200899328752 0 0.7709782594222889 -0.6368614633483312 0
          -0.2017874364790053 -0.979429339196673 0 -0.9913010363735574 -0.1316140390866838 0
          0.3401159614348194 0.9403835030333467 0 0.005648029579457994 -0.9999840497537296 0
          0.32763946431332197 -0.9448028267445433 0 0.9905609144498918 -0.1370732459825552 0
          -0.08122413744066007 -0.9966958610815141 0 -0.08199921649616786 -0.9966323938614551 0
          -0.9477740786021921 -0.31894246492081574 0 -0.8206851949834518 -0.5713806180953057 0
          -0.9085737108981331 0.4177245645934599 0 0.7193546665716146 -0.6946429756944507 0
          0.9793142543509927 0.20234522782847905 0 -0.39917951388446987 -0.9168727914465334 0
          0.978369637773974 -0.20686433206820112 0 -0.0741896132894652 0.9972441532944476 0
          0.4785898135910525 -0.8780386041210726 0 -0.5863945101718746 -0.8100256035708299 0
          -0.9936550959931403 -0.11247021919985342 0 0.6339576516883576 -0.7733677623652172 0
          -0.45605795722796916 0.8899500770543547 0 -0.823901837887664 0.566732530851485 0
          0.7020284496774213 0.7121489000507664 0 0.7774133500926204 0.6289900500785118 0
          0.9931849038524445 0.11654933187114602 0 -0.7261593806377304 0.6875264023379958 0
          -0.8570657308100869 0.5152070778541108 0 -0.9987135295950327 -0.05070784755668324 0
          0.7814118756572677 0.6240156092453063 0 0.7441075165888 0.6680598803670587 0
          -0.5025514126211271 -0.8645473252937109 0 0.44921988244498007 0.8934212316797258 0
          0.2727286225539381 -0.9620910032007531 0 0.99440570250444 -0.1056281157015081 0
          -0.8889739206559129 0.4579578238153103 0 0.9707003780823158 0.24029310433478762 0
          0.7191388575831393 -0.6948663925633597 0 -0.8151243395832155 -0.5792860355808922 0
          -0.080117135384262 0.9967854556612571 0 -0.9948957819327456 0.10090779500331307 0
          -0.7168976162920804 0.6971784619125386 0 0.566430004061317 0.824109853417065 0
          -0.05915980926155272 -0.9982485246511195 0 0.15818353463051676 0.9874097272013256 0
          0.271501181035184 0.9624381064237327 0 -0.07231096500171844 -0.9973821355631552 0
          <InformationKey name="L2_NORM_RANGE" location="vtkDataArray" length="2">
            <Value index="0">
              1
            </Value>
            <Value index="1">
              1
            </Value>
          </InformationKey>
        </DataArray>
        <DataArray type="Float64" Name="velocity" NumberOfComponents="3" format="ascii" RangeMin="2.98391528750295" RangeMax="65.61664053985334">
          20.472372037415383 -30.489259884928693 0 -7.778161120144524 43.605506408926914 0
          -35.778279556590725 14.318100471258902 0 -2.7267860528004704 -6.306708942777526 0
          -25.56803597993237 0.5919415230237348 0 40.69440930810454 -42.34960265147567 0
          21.390392053252754 11.720491675449018 0 -31.091580543867785 -10.301819378431787 0
          -22.233594277397 35.80993014386058 0 40.8936574712134 11.727908496204755 0
          -31.918129728714472 1.502371966558826 0 32.46317064138093 -14.067556233339687 0
          31.61170207931397 -20.66117562390716 0 -32.788218903188394 -0.7210412736466054 0
          -30.467523066969363 36.43074923190564 0 -29.58028331655805 11.627227611362315 0
          37.80505508071815 -10.753091333426255 0 44.65772551607054 -33.330173144632525 0
          47.18774005931614 6.396489460552942 0 9.836891189866492 -36.87781496106794 0
          6.677739541459459 5.438027088135769 0 -18.951003944933063 -37.93510690561732 0
          23.77908201111339 -25.727634747998636 0 32.285914726045576 -31.45240287607238 0
          -18.732306147503376 38.172541468590836 0 17.42129460906331 23.929755673071398 0
          -43.74567596165927 -36.843843838172035 0 -41.00470913383489 -49.1685554695042 0
          -4.3489588147394045 13.430332075080756 0 2.9762992276979077 -0.21305715242312573 0
          -16.420210149222868 -24.717665071237764 0 -26.63245586108499 -32.68369682188443 0
          9.59810303037343 22.68931438280859 0 37.757309281314306 20.71597266757422 0
          -26.523439665569285 -2.200425364398683 0 -48.17882370239545 24.733119867345934 0
          15.472358145094617 -42.19330576503555 0 -2.7230899171649696 49.647506705142575 0
          3.209752212846098 39.943600631846664 0 27.290092728339346 -29.624030405099575 0
          40.710862227344634 -12.518743865476708 0 34.808888796398136 -17.330075407408792 0
          -17.326333983387784 15.921061981020685 0 8.676498234140595 -45.101679767889145 0
          26.99656655139428 -0.8247828969564566 0 -1.181598492863479 -7.087342925864128 0
          -10.527228461045638 27.645380145270124 0 47.47543864880045 24.850515939083976 0
          13.45020038299144 -42.781974126121774 0 13.33632968921519 2.89206325620421 0
          -20.383234879262602 -17.467213088655853 0 13.111992425538233 49.45054225750374 0
          1.6047826830209004 22.445391370448775 0 -25.442525168919026 -16.766088433362327 0
          24.860911549332883 18.296648546241826 0 18.127137052491975 -42.11576276898946 0
          -4.106371249565804 19.81468592825003 0 -43.2115168522386 -43.085994704941484 0
          2.7042817825837204 -23.795120132132308 0 -1.6624837545658195 -36.91945356486498 0
          -40.55592314206473 -37.96183180819797 0 46.98372058379586 25.62816454897687 0
          -23.182362140209666 22.4905983535036 0 -8.42374893276238 -2.5281598168396826 0
          -44.45585735866184 11.374414308737222 0 -0.9380815156004232 40.44748670579848 0
          43.5214270198436 41.82766196839604 0 -19.617472876146607 29.010177679462174 0
          -27.377259211045168 -5.104813753149479 0 1.0108912986547693 -26.93680745999526 0
          21.18807799653547 48.4452609761332 0 15.521324819791857 -22.733301715898534 0
          -3.0984436752635744 -49.699879474370995 0 -5.357606698271908 47.09441502974741 0
          -19.533649987483585 -28.48909553641595 0 -25.241492794096537 30.645102659141713 0
          -1.3628901407151872 -9.249808436218693 0 -28.437070584076316 4.0252086974848424 0
          22.302423751473526 -21.630608392707323 0 4.286209731170565 25.592468486596516 0
          -16.80227135673981 30.176297340482108 0 35.70724318896097 -48.51082997011254 0
          38.494266527440914 9.308694076898924 0 -41.37827709570729 42.48759424258512 0
          41.371957205314274 48.07567751376408 0 40.00221093710812 44.971458396046486 0
          43.45219546574209 -49.16757290067578 0 27.77940311086799 -47.40411222574361 0
          8.787704962513757 14.978077069606684 0 -17.176354508003442 -38.89206379839693 0
          -37.572734230027905 47.39150589914381 0 3.322947059262674 16.230028184641725 0
          20.82576325094061 -43.12614201683975 0 -29.404442159877867 -6.6570323329381935 0
          -48.88074135310182 -43.07374742736768 0 -15.693819004659524 -18.776991949103287 0
          49.2742614956165 -23.093566379026992 0 35.70662412955289 -14.438908494432013 0
          24.676827977366614 34.48562696853686 0 -28.28613766609157 46.49521791482232 0
          21.219265309149932 48.266786794162286 0 25.989900495501132 -30.673962513745963 0
          -14.741048879365302 -30.369965831724773 0 33.206792723445574 45.25947670903301 0
          26.73700517552618 36.1968809297727 0 -4.433626259916984 -16.731616061562868 0
          33.82599634129042 5.430878965379037 0 -37.91344272052366 -28.781627030961573 0
          -0.8760744559602713 -9.034520229977083 0 25.951148963832622 -14.29357740625877 0
          27.17860558051683 48.15404052238152 0 34.61617221348607 33.462162550860555 0
          -13.28055184508198 -44.93740558320786 0 47.55616001461492 34.25892934866374 0
          36.946038841117556 -42.45015674570037 0 -46.76239316488481 11.393180618063838 0
          23.568028568935404 11.552780427737098 0 16.263007945057282 45.12644264060411 0
          -23.411248530157515 41.93857265065735 0 -38.160345232049345 -18.69342940760771 0
          37.21153998486223 -26.635630373860984 0 30.80584946405935 5.653176675427417 0
          44.35923105765637 0.370346282237378 0 16.64168251311186 -34.7034267378138 0
          47.322877480901255 13.376690736606477 0 -32.1350217035443 -42.58571958176201 0
          -0.5025219679409361 28.59799073613067 0 -3.5320261053794297 38.30316610148137 0
          14.736889949280638 40.32409694969634 0 -49.402638529229115 19.356180838194604 0
          8.508964450503598 -39.46387075781778 0 49.03198966734128 -27.000797471280585 0
          -16.70921662991016 18.938285128010065 0 46.14207459237997 -27.3400906744995 0
          42.424140585792586 37.62461911345025 0 -6.825547086494495 -2.911259141055119 0
          6.210247997996007 33.76154121673389 0 -35.16911208657487 13.927818279591207 0
          49.5593687100304 13.93941034113417 0 -6.0481675260535965 -47.161165000275155 0
          -41.68490984500472 3.0367185203014984 0 28.200151364646487 23.664522522360798 0
          -30.983903256438072 -23.817273645282434 0 -4.775523168997552 -3.9973115200368454 0
          17.36371431475763 -32.304692769073746 0 -31.21691646176371 -40.35131875297581 0
          -17.61253928181918 -32.96735050248542 0 -47.52659271635095 33.064298464373394 0
          -25.51716157275273 -35.79649925661745 0 -34.4558032257712 -19.698927528483058 0
          -46.64276824331557 -9.071061809886274 0 28.312364537561464 -5.662808823633235 0
          -48.25117889494449 -21.421563451189467 0 45.139670111270334 -32.86849758057289 0
          <InformationKey name="L2_NORM_RANGE" location="vtkDataArray" length="2">
            <Value index="0">
              2.9839152875
            </Value>
            <Value index="1">
              65.61664054
            </Value>
          </InformationKey>
        </DataArray>
        <DataArray type="Float64" Name="force" NumberOfComponents="3" format="ascii" RangeMin="0.49999999999999994" RangeMax="0.5">
          -0.49188612127741715 -0.0897108894987563 0 0.08520356507821487 -0.49268687063688066 0
          -0.4238218946288391 -0.2652828709759098 0 -0.04956027686473284 0.4975377161151615 0
          -0.49130582653259786 0.09283633348598408 0 0.017983510608894866 0.49967648868660985 0
          0.4820270331693225 0.1328530740855508 0 0.3907951694019188 0.3118960332741114 0
          0.4409104013779387 -0.23579231954570742 0 -0.2844772797069423 -0.4111844808970034 0
          -0.36719198772758965 0.3393671229637038 0 -0.49597411611599124 -0.06332200362402654 0
          -0.0631437138477581 -0.49599684616085254 0 -0.29330400365225634 0.40493550281687724 0
          0.4347597356986466 0.24694933127109883 0 0.4999995372594691 -0.0006802501868776852 0
          -0.43877866251697045 -0.23973586573522646 0 -0.43743016442430366 0.24218763645513922 0
          0.4116229196454398 -0.28384251271182726 0 -0.49922237558630483 -0.027875073344591803 0
          0.39272094978824573 0.3094676971792341 0 0.30412928353165924 -0.3968694733769777 0
          -0.479426384536714 -0.14195189963524557 0 0.3657428119983556 0.34092843159750624 0
          -0.4779420978149805 -0.14687188681369778 0 -0.37483701922036566 0.330903624975598 0
          0.4371420369339708 -0.2427073125087477 0 0.4395957524412783 0.23823428476100234 0
          -0.49998748692004563 -0.003537361075323795 0 -0.26426173106422796 -0.42445934728185414 0
          0.26083278050556924 0.4265750351505975 0 -0.4982721626794069 -0.041531336347228956 0
          -0.49350052616549905 0.08035689562430585 0 0.12130997222595949 0.4850607081990222 0
          0.49152988984763324 -0.09164260682877566 0 -0.07357895286067086 0.4945565060697586 0
          0.36866651679263285 0.33776471011043674 0 -0.3339764230261091 -0.372101799058652 0
          -0.4257018938713264 -0.26225540519570983 0 0.4833466313918273 0.1279688787251534 0
          -0.2328213999788963 0.4424863791258063 0 0.38722979583028294 -0.31631168998511167 0
          0.12251392785975337 -0.48475801951115277 0 -0.49946203300071346 -0.0231878759439979 0
          0.3771957890206634 0.32821233484602486 0 -0.47030909078591593 0.1697331998288051 0
          0.29840376539519414 -0.40119221427885404 0 -0.49889927441553755 0.033158920182209756 0
          -0.32292681202159107 -0.38173063025852666 0 -0.33587198072797 0.3703917015294352 0
          0.4342202556440203 -0.24789669136243364 0 0.49283226888715836 -0.08435848945740826 0
          0.4879148698325286 -0.10926609628016687 0 0.025365962290967187 0.4993561534186329 0
          -0.08426625710187013 0.4928480474893266 0 -0.49807988569603306 -0.04377701982806329 0
          -0.4328153642941505 -0.25034148763423486 0 0.06488395060812033 0.49577219864922134 0
          -0.19995028280252775 -0.45827926464895746 0 0.42335911013925975 -0.26602079592034555 0
          -0.4791210535351176 -0.14297907559988968 0 -0.20407192038147012 -0.45645881666566474 0
          -0.4230105543606992 -0.2665747004114493 0 0.45655455533421885 -0.20385764151381155 0
          0.22615534201571746 -0.445930220188937 0 -0.4727970504081676 0.16267436529870535 0
          0.37479913076918914 -0.33094653884677544 0 -0.44739270940495296 -0.2232482106788212 0
          -0.3460085586095418 0.36094054547660237 0 0.493530042553045 -0.08017541454579181 0
          -0.15175720900424475 0.4764134228957471 0 0.05993006878140925 0.49639539366905444 0
          0.09604551389591497 0.490688556276249 0 0.030232211810917058 0.4990851764669232 0
          -0.08847952651096745 -0.4921091071992013 0 -0.4789674279790962 0.14349286719237753 0
          -0.4992162904565836 -0.027983840743685266 0 0.2101636868031239 -0.45368626246484306 0
          -0.28066780325288254 0.4137941326519761 0 -0.10907133737274051 -0.48795844430004676 0
          -0.09301163799011224 0.4912726688900944 0 0.47311663714643043 -0.16174253508354836 0
          -0.27405721582938053 -0.41820167676833664 0 -0.4819602819351814 -0.13309502859596378 0
          -0.48301514253954203 0.12921444221721456 0 0.12526954225711473 0.48405324271477923 0
          -0.43690462400114743 -0.2431344268638565 0 -0.06381911897950407 -0.4959103951851382 0
          0.4684523106387499 0.1747925417665643 0 0.3102092283706073 0.3921354799475717 0
          0.25562892243047985 -0.429713688421758 0 -0.07796493062079311 -0.4938840649315332 0
          -0.4723348499015934 -0.16401155315537755 0 -0.10830472200966891 -0.4881291705997587 0
          0.06575778785647877 0.4956570521401086 0 0.49868212644546717 0.03627859925392766 0
          -0.3689949483256718 0.337405880372786 0 0.4987601324215654 -0.03518991768706645 0
          -0.4364815851520391 -0.24389306226943652 0 0.4667072057159442 -0.17940006725978488 0
          -0.31656734032096406 0.3870208250754873 0 0.34787846246701265 -0.35913865755664237 0
          -0.4746266663556128 -0.15725624815617914 0 0.4999860056539752 -0.0037408755904290983 0
          -0.28973014406437914 0.40750023757101556 0 -0.42786367066301034 0.25871350820313777 0
          0.44960431795778183 0.2187600449664376 0 0.38548912971114446 -0.3184307316741656 0
          -0.10089371823950265 -0.4897146695983365 0 -0.4956505181867787 -0.0658070195433419 0
          0.1700579807174097 0.47019175151667336 0 0.002824014789728997 -0.4999920248768648 0
          0.16381973215666099 -0.47240141337227165 0 0.4952804572249459 -0.0685366229912776 0
          -0.04061206872033003 -0.49834793054075704 0 -0.04099960824808393 -0.49831619693072754 0
          -0.47388703930109605 -0.15947123246040787 0 -0.4103425974917259 -0.28569030904765286 0
          -0.45428685544906655 0.20886228229672996 0 0.3596773332858073 -0.34732148784722533 0
          0.48965712717549637 0.10117261391423953 0 -0.19958975694223494 -0.4584363957232667 0
          0.489184818886987 -0.10343216603410056 0 -0.0370948066447326 0.4986220766472238 0
          0.23929490679552626 -0.4390193020605363 0 -0.2931972550859373 -0.40501280178541493 0
          -0.49682754799657014 -0.05623510959992671 0 0.3169788258441788 -0.3866838811826086 0
          -0.22802897861398458 0.44497503852717735 0 -0.411950918943832 0.2833662654257425 0
          0.35101422483871064 0.3560744500253832 0 0.3887066750463102 0.3144950250392559 0
          0.49659245192622226 0.05827466593557301 0 -0.3630796903188652 0.3437632011689979 0
          -0.42853286540504343 0.2576035389270554 0 -0.49935676479751634 -0.02535392377834162 0
          0.39070593782863383 0.31200780462265315 0 0.3720537582944 0.33402994018352933 0
          -0.25127570631056356 -0.43227366264685546 0 0.22460994122249003 0.4467106158398629 0
          0.13636431127696905 -0.48104550160037657 0 0.49720285125222 -0.05281405785075405 0
          -0.4444869603279564 0.22897891190765515 0 0.4853501890411579 0.12014655216739381 0
          0.35956942879156967 -0.34743319628167985 0 -0.40756216979160775 -0.2896430177904461 0
          -0.040058567692131 0.49839272783062855 0 -0.4974478909663728 0.05045389750165653 0
          -0.3584488081460402 0.3485892309562693 0 0.2832150020306585 0.4120549267085325 0
          -0.02957990463077636 -0.49912426232555973 0 0.07909176731525838 0.4937048636006628 0
          0.135750590517592 0.48121905321186637 0 -0.03615548250085922 -0.4986910677815776 0
          <InformationKey name="L2_NORM_RANGE" location="vtkDataArray" length="2">
            <Value index="0">
              0.5
            </Value>
            <Value index="1">
              0.5
            </Value>
          </InformationKey>
        </DataArray>
        <DataArray type="Float64" Name="radius" format="ascii" RangeMin="1" RangeMax="1">
          1 1 1 1 1 1
          1 1 1 1 1 1
          1 1 1 1 1 1
          1 1 1 1 1 1
          1 1 1 1 1 1
          1 1 1 1 1 1
          1 1 1 1 1 1
          1 1 1 1 1 1
          1 1 1 1 1 1
          1 1 1 1 1 1
          1 1 1 1 1 1
          1 1 1 1 1 1
          1 1 1 1 1 1
          1 1 1 1 1 1
          1 1 1 1 1 1
          1 1 1 1 1 1
          1 1 1 1 1 1
          1 1 1 1 1 1
          1 1 1 1 1 1
          1 1 1 1 1 1
          1 1 1 1 1 1
          1 1 1 1 1 1
          1 1 1 1 1 1
          1 1 1 1 1 1
          1 1 1 1 1 1
          1 1 1 1
        </DataArray>
      </PointData>
      <CellData>
      </CellData>
      <Points>
        <DataArray type="Float32" Name="Points" NumberOfComponents="3" format="ascii" RangeMin="2.9666806494287385" RangeMax="67.18633270611407">
          -37.58742141723633 33.81827926635742 0 46.83838653564453 -28.110769271850586 0
          -19.646499633789062 4.244956016540527 0 -31.297840118408203 49.682762145996094 0
          48.65510940551758 46.33231735229492 0 22.527448654174805 48.975711822509766 0
          -39.509033203125 29.573562622070312 0 -19.972515106201172 -50.43571853637695 0
          -38.954383850097656 13.604799270629883 0 37.50799560546875 0.7047043442726135 0
          29.923694610595703 -13.53552532196045 0 -28.654651641845703 18.227218627929688 0
          -10.895129203796387 23.73320198059082 0 -3.19305157661438 -7.553913593292236 0
          -32.23414611816406 -19.65961456298828 0 29.025758743286133 -18.71990203857422 0
          37.08851623535156 -35.397117614746094 0 49.19023513793945 31.42693328857422 0
          -37.80870819091797 26.28772735595703 0 -1.5387831926345825 15.481900215148926 0
          -37.96995162963867 -28.711151123046875 0 -44.86400604248047 -46.36207962036133 0
          -8.793217658996582 -4.086376190185547 0 -1.089130163192749 29.980010986328125 0
          42.02415466308594 30.872211456298828 0 20.958572387695312 -49.472042083740234 0
          20.54916763305664 14.54158878326416 0 -4.371020317077637 27.307024002075195 0
          7.779231548309326 37.64846420288086 0 30.9409122467041 -47.69662857055664 0
          32.561744689941406 32.58774948120117 0 43.892818450927734 -8.7178373336792 0
          -7.497858047485352 7.773108005523682 0 -34.265384674072266 27.011350631713867 0
          -26.24292755126953 31.297000885009766 0 49.891902923583984 -17.53443717956543 0
          -20.228425979614258 -48.85509490966797 0 -28.891965866088867 40.50663375854492 0
          34.635719299316406 45.52853012084961 0 27.537450790405273 49.264930725097656 0
          -43.31428527832031 29.67544937133789 0 9.434496879577637 23.97446632385254 0
          19.257953643798828 18.108598709106445 0 -10.611842155456543 5.790614604949951 0
          -29.474105834960938 2.208371639251709 0 -9.471199989318848 -14.994110107421875 0
          9.512062072753906 -13.469596862792969 0 46.77323532104492 -34.86564254760742 0
          -10.665743827819824 -11.32140827178955 0 22.33091163635254 -11.511746406555176 0
          42.3422966003418 -6.514985084533691 0 35.099334716796875 12.020596504211426 0
          -37.27242660522461 -2.8356823921203613 0 -15.726630210876465 3.4866843223571777 0
          21.606229782104492 48.570865631103516 0 21.99870491027832 41.76232147216797 0
          1.297544240951538 6.023470401763916 0 0.2965143024921417 -3.5799169540405273 0
          4.875152587890625 -5.489814758300781 0 34.79507064819336 10.776067733764648 0
          0.4350293278694153 47.48583984375 0 -46.915462493896484 47.781585693359375 0
          -13.615885734558105 17.7941951751709 0 -15.246583938598633 35.57868576049805 0
          -45.59324264526367 15.725448608398438 0 24.616151809692383 -36.09938049316406 0
          48.12467575073242 -40.1894645690918 0 -22.167003631591797 29.922578811645508 0
          -42.357521057128906 12.843250274658203 0 -49.0667610168457 18.743061065673828 0
          2.781867742538452 -5.905668258666992 0 -30.005399703979492 -35.50714874267578 0
          -11.072888374328613 26.693830490112305 0 -46.6839485168457 -24.45205307006836 0
          1.4438071250915527 32.94969940185547 0 47.449710845947266 32.38519287109375 0
          -19.447179794311523 -44.04750061035156 0 -24.381786346435547 3.7096362113952637 0
          39.48598861694336 -14.892565727233887 0 -47.489078521728516 -33.276832580566406 0
          37.749732971191406 -29.392831802368164 0 -22.995302200317383 -0.9926488399505615 0
          -28.02688980102539 -0.4498386085033417 0 44.718257904052734 15.234077453613281 0
          26.53793716430664 -6.69691276550293 0 4.603271007537842 -44.36296081542969 0
          -17.142614364624023 -9.240888595581055 0 40.49546813964844 31.438461303710938 0
          -24.71438980102539 -36.324668884277344 0 -1.557373285293579 -11.586881637573242 0
          21.453641891479492 -21.174354553222656 0 11.984312057495117 31.308414459228516 0
          -18.573455810546875 -11.84912395477295 0 -14.959632873535156 31.47715950012207 0
          17.520851135253906 -12.327780723571777 0 -4.240833759307861 -19.678836822509766 0
          40.579315185546875 -1.4061137437820435 0 25.388975143432617 -38.615177154541016 0
          -10.400350570678711 37.3509407043457 0 -13.030882835388184 42.06869888305664 0
          5.226467609405518 -36.333072662353516 0 -29.992080688476562 45.08416748046875 0
          49.97234344482422 -26.664321899414062 0 -48.295963287353516 -11.329756736755371 0
          28.492935180664062 -2.918555974960327 0 4.1906657218933105 -48.17961120605469 0
          39.7410888671875 -29.901718139648438 0 38.54909133911133 -5.669501304626465 0
          -34.578060150146484 -25.775848388671875 0 29.37314796447754 -2.9925482273101807 0
          -41.0827522277832 14.609724998474121 0 13.976510047912598 8.086760520935059 0
          22.331623077392578 -14.81696605682373 0 18.45151138305664 21.11684226989746 0
          -33.495216369628906 -36.266048431396484 0 -5.032949924468994 -46.03694152832031 0
          29.81830406188965 -33.01186752319336 0 32.591365814208984 -16.741689682006836 0
          16.125091552734375 -8.246026039123535 0 27.73273468017578 -38.747291564941406 0