<?xml version="1.0"?>
<VTKFile type="PolyData" version="0.1" byte_order="LittleEndian" header_type="UInt32" compressor="vtkZLibDataCompressor">
  <PolyData>
    <Piece NumberOfPoints="154" NumberOfVerts="0" NumberOfLines="0" NumberOfStrips="0" NumberOfPolys="0">
      <PointData>
        <DataArray type="Int32" Name="id" format="ascii" RangeMin="0" RangeMax="153">
          0 1 2 3 4 5
          6 7 8 9 10 11
          12 13 14 15 16 17
          18 19 20 21 22 23
          24 25 26 27 28 29
          30 31 32 33 34 35
          36 37 38 39 40 41
          42 43 44 45 46 47
          48 49 50 51 52 53
          54 55 56 57 58 59
          60 61 62 63 64 65
          66 67 68 69 70 71
          72 73 74 75 76 77
          78 79 80 81 82 83
          84 85 86 87 88 89
          90 91 92 93 94 95
          96 97 98 99 100 101
          102 103 104 105 106 107
          108 109 110 111 112 113
          114 115 116 117 118 119
          120 121 122 123 124 125
          126 127 128 129 130 131
          132 133 134 135 136 137
          138 139 140 141 142 143
          144 145 146 147 148 149
          150 151 152 153
        </DataArray>
        <DataArray type="Float64" Name="director" NumberOfComponents="3" format="ascii" RangeMin="0.9999999999999999" RangeMax="1">
          -0.9782770531058086 -0.2073017302547546 0 0.1109542343492513 -0.9938255168187077 0
          -0.7875962182483068 -0.6161916885198676 0 0.05124909142252513 0.9986859018872579 0
          -0.9893060410721812 0.1458545751702282 0 -0.006156055532953104 0.9999810513106112 0
          0.8962896266916981 0.44346917038826544 0 0.7710180193087617 0.636813327358335 0
          0.9471320622193347 -0.32084397565818557 0 -0.539824639232476 -0.8417774996265505 0
          -0.7768424940041734 0.6296949575067088 0 -0.9827056387940576 -0.1851745864916761 0
          -0.13562667513672727 -0.9907600138234065 0 -0.6336224183001424 0.7736424439154559 0
          0.8310125182418362 0.5562537141677005 0 0.9975869108858509 -0.06942877810551845 0
          -0.8900259215868929 -0.4559099241115531 0 -0.9204166949386232 0.39093875182470894 0
          0.7715661284335236 -0.6361491251696441 0 -0.9839214109351841 -0.1786019515663714 0
          0.7920851679652761 0.6104105886118133 0 0.6352547390223703 -0.772302671592958 0
          -0.9465477926821966 -0.32256360019143726 0 0.779040444543716 0.6269736723062056 0
          -0.9174173527865582 -0.3979263761125968 0 -0.8024700425817873 0.5966924088328797 0
          0.9351007965331318 -0.354381856650566 0 0.8098849435401819 0.5865887641499079 0
          -0.9924325267957004 -0.12279120391095409 0 -0.49519821624432814 -0.8687800220012173 0
          0.594957958676486 0.8037568210643744 0 -0.982429179866862 -0.18663575902309026 0
          -0.987111379271419 0.16003476157659272 0 0.1708153209553188 0.9853030630861407 0
          0.9734775427025716 -0.22878259080131727 0 -0.014532419521716959 0.9998943988156174 0
          0.6553440772886419 0.7553304842005906 0 -0.7254640898457487 -0.688260019428907 0
          -0.8406267317535822 -0.5416148981160793 0 0.9425111743679382 0.3341746342731148 0
          -0.393969281412041 0.9191236071952891 0 0.8023544274334963 -0.5968478640138258 0
          0.3446227601202461 -0.9387412599897287 0 -0.9966840281909902 -0.08136920762168799 0
          0.75547571842052 0.6551766470784801 0 -0.9636414310705047 0.26719878802941766 0
          0.5174441708941273 -0.8557169684000014 0 -0.9991231403624719 0.0418682504080632 0
          -0.6880550000349345 -0.7256585401736317 0 -0.7389455737165346 0.6737651216000584 0
          0.8613705045617958 -0.5079772178660745 0 0.9848066059509676 -0.17365468284885266 0
          0.9487314315900776 -0.31608332874898987 0 0.016286923855933392 0.9998673592588724 0
          -0.1606050559274821 0.9870187516002573 0 -0.9878006420063823 -0.15572376713841365 0
          -0.8097910247354525 -0.5867184130891971 0 0.035180161383502766 0.9993809865336796 0
          -0.3859332380226763 -0.9225267127781895 0 0.8679427313146179 -0.4966642881848071 0
          -0.9738850634197534 -0.2270415892472187 0 -0.4147098102571792 -0.9099537204036557 0
          -0.8008493810728949 -0.5988658187233273 0 0.9302429163895591 -0.36694429619091734 0
          0.3969343033527713 -0.9178470236492845 0 -0.950927148026771 0.309414865747707 0
          0.7298941493376104 -0.6835601881054265 0 -0.872988628769459 -0.48774056017438167 0
          -0.6392020032965656 0.7690388800195068 0 0.9969895727179152 -0.07753574589664339 0
          -0.18176718386487153 0.9833415941929 0 0.07472661699410686 0.9972040577096626 0
          0.1506459420484329 0.9885877806974656 0 0.07478553818347362 0.9971996406330119 0
          -0.24944078634916478 -0.9683900526675758 0 -0.9135117924513466 0.4068122479133684 0
          -0.9928648315101183 -0.11924523617480208 0 0.37592146996496123 -0.9266515248028154 0
          -0.572617858569915 0.8198224125057846 0 -0.2602144640150972 -0.9655508441906805 0
          -0.13794428595563482 0.9904399900913684 0 0.9425169729343494 -0.33415827945850873 0
          -0.6002332022287395 -0.7998250452081587 0 -0.9476940715783624 -0.3191801163845042 0
          -0.9570387879079076 0.28995992557552314 0 0.309017326579261 0.9510564083553648 0
          -0.9465301023028829 -0.32261550712030873 0 -0.15302887445874572 -0.9882217178254531 0
          0.9278188377327002 0.3730311037277473 0 0.5244836271160238 0.8514205335127992 0
          0.4869503489316703 -0.8734296523906917 0 -0.14730514061493696 -0.9890910956774476 0
          -0.9081759913843945 -0.41858854340864626 0 -0.16712487044216157 -0.9859357370943052 0
          0.10875141613541675 0.9940689762227476 0 0.9946098040593961 0.10368865737837275 0
          -0.7195165546212985 0.69447528942785 0 0.9986720982601357 -0.05151737723038667 0
          -0.9182311343549763 -0.396044926619662 0 0.9169148746534418 -0.3990828393194365 0
          -0.669403318796168 0.742899183459422 0 0.6939420078998535 -0.7200308949426544 0
          -0.8953813379433766 -0.44530019050380926 0 0.9988071671499594 0.0488287092792047 0
          -0.46360986892520895 0.8860394401126569 0 -0.8655112025941603 0.5008895668548213 0
          0.8305208824002739 0.5569874898927897 0 0.6821179138384296 -0.7312421976477483 0
          -0.31936441927141723 -0.9476319790421968 0 -0.9895134189596846 -0.14444096959905703 0
          0.4050801943793974 0.9142811581354773 0 0.09454752225447238 -0.9955203493829445 0
          0.37073938906891307 -0.9287369409002794 0 0.9971389951194283 -0.07558984331387858 0
          -0.12055643153803061 -0.9927064756587498 0 -0.17177035341701674 -0.9851370187374917 0
          -0.969386022028539 -0.24554172821678397 0 -0.858877705317205 -0.5121807174318967 0
          -0.9186065081914645 0.395173484824431 0 0.5976476788068814 -0.8017588490417469 0
          0.9871466249575307 0.1598172106969589 0 -0.3198349493487609 -0.9474732741217958 0
          0.9669567338267131 -0.2549405320994978 0 -0.057961357947059505 0.9983188273216792 0
          0.4667835250807924 -0.8843716078171829 0 -0.5702240071757948 -0.8214892462110378 0
          -0.9951428919035672 -0.09844097060576572 0 0.7185635006742661 -0.6954613544250636 0
          -0.5010936437876606 0.8653930668520549 0 -0.8358424503170588 0.5489693964584684 0
          0.728592828801068 0.6849470708161746 0 0.8155312611414091 0.5787130222321794 0
          0.9889697886995948 0.14811737588641877 0 -0.735818568731705 0.677178731140919 0
          -0.8858152962741186 0.4640379950896214 0 -0.9950328261492596 -0.09954734996682368 0
          0.7690412228567561 0.6391991845637675 0 0.7475998416030258 0.6641494386319473 0
          -0.49650452982051874 -0.8680341305891754 0 0.4788028845522769 0.8779224326467681 0
          0.41213834182152603 -0.911121280182064 0 0.9995087659392232 0.031340497932406855 0
          -0.8823737454838536 0.4705492251410001 0 0.961217628256273 0.2757909917480725 0
          0.7375450208136322 -0.6752979655478156 0 -0.8018038633247341 -0.5975872863084782 0
          -0.11322998434938998 0.9935688051887684 0 -0.9961952006509625 0.08714999827876442 0
          -0.7163787985319937 0.6977115571737774 0 0.5581948568152816 0.8297098901573774 0
          -0.07476145130699406 -0.9972014467490868 0 0.11858805744896173 0.9929435394978315 0
          0.33855140225296604 0.9409478986811918 0 -0.36709328925142193 -0.9301841306894952 0
          <InformationKey name="L2_NORM_RANGE" location="vtkDataArray" length="2">
            <Value index="0">
              1
            </Value>
            <Value index="1">
              1
            </Value>
          </InformationKey>
        </DataArray>
        <DataArray type="Float64" Name="velocity" NumberOfComponents="3" format="ascii" RangeMin="2.98391528750295" RangeMax="65.61664053985334">
          20.472372037415383 -30.489259884928693 0 -7.778161120144524 43.605506408926914 0
          -35.778279556590725 14.318100471258902 0 -2.7267860528004704 -6.306708942777526 0
          -25.56803597993237 0.5919415230237348 0 40.69440930810454 -42.34960265147567 0
          21.390392053252754 11.720491675449018 0 -31.091580543867785 -10.301819378431787 0
          -22.233594277397 35.80993014386058 0 40.8936574712134 11.727908496204755 0
          -31.918129728714472 1.502371966558826 0 32.46317064138093 -14.067556233339687 0
          31.61170207931397 -20.66117562390716 0 -32.788218903188394 -0.7210412736466054 0
          -30.467523066969363 36.43074923190564 0 -29.58028331655805 11.627227611362315 0
          37.80505508071815 -10.753091333426255 0 44.65772551607054 -33.330173144632525 0
          47.18774005931614 6.396489460552942 0 9.836891189866492 -36.87781496106794 0
          6.677739541459459 5.438027088135769 0 -18.951003944933063 -37.93510690561732 0
          23.77908201111339 -25.727634747998636 0 32.285914726045576 -31.45240287607238 0
          -18.732306147503376 38.172541468590836 0 17.42129460906331 23.929755673071398 0
          -43.74567596165927 -36.843843838172035 0 -41.00470913383489 -49.1685554695042 0
          -4.3489588147394045 13.430332075080756 0 2.9762992276979077 -0.21305715242312573 0
          -16.420210149222868 -24.717665071237764 0 -26.63245586108499 -32.68369682188443 0
          9.59810303037343 22.68931438280859 0 37.757309281314306 20.71597266757422 0
          -26.523439665569285 -2.200425364398683 0 -48.17882370239545 24.733119867345934 0
          15.472358145094617 -42.19330576503555 0 -2.7230899171649696 49.647506705142575 0
          3.209752212846098 39.943600631846664 0 27.290092728339346 -29.624030405099575 0
          40.710862227344634 -12.518743865476708 0 34.808888796398136 -17.330075407408792 0
          -17.326333983387784 15.921061981020685 0 8.676498234140595 -45.101679767889145 0
          26.99656655139428 -0.8247828969564566 0 -1.181598492863479 -7.087342925864128 0
          -10.527228461045638 27.645380145270124 0 47.47543864880045 24.850515939083976 0
          13.45020038299144 -42.781974126121774 0 13.33632968921519 2.89206325620421 0
          -20.383234879262602 -17.467213088655853 0 13.111992425538233 49.45054225750374 0
          1.6047826830209004 22.445391370448775 0 -25.442525168919026 -16.766088433362327 0
          24.860911549332883 18.296648546241826 0 18.127137052491975 -42.11576276898946 0
          -4.106371249565804 19.81468592825003 0 -43.2115168522386 -43.085994704941484 0
          2.7042817825837204 -23.795120132132308 0 -1.6624837545658195 -36.91945356486498 0
          -40.55592314206473 -37.96183180819797 0 46.98372058379586 25.62816454897687 0
          -23.182362140209666 22.4905983535036 0 -8.42374893276238 -2.5281598168396826 0
          -44.45585735866184 11.374414308737222 0 -0.9380815156004232 40.44748670579848 0
          43.5214270198436 41.82766196839604 0 -19.617472876146607 29.010177679462174 0
          -27.377259211045168 -5.104813753149479 0 1.0108912986547693 -26.93680745999526 0
          21.18807799653547 48.4452609761332 0 15.521324819791857 -22.733301715898534 0
          -3.0984436752635744 -49.699879474370995 0 -5.357606698271908 47.09441502974741 0
          -19.533649987483585 -28.48909553641595 0 -25.241492794096537 30.645102659141713 0
          -1.3628901407151872 -9.249808436218693 0 -28.437070584076316 4.0252086974848424 0
          22.302423751473526 -21.630608392707323 0 4.286209731170565 25.592468486596516 0
          -16.80227135673981 30.176297340482108 0 35.70724318896097 -48.51082997011254 0
          38.494266527440914 9.308694076898924 0 -41.37827709570729 42.48759424258512 0
          41.371957205314274 48.07567751376408 0 40.00221093710812 44.971458396046486 0
          43.45219546574209 -49.16757290067578 0 27.77940311086799 -47.40411222574361 0
          8.787704962513757 14.978077069606684 0 -17.176354508003442 -38.89206379839693 0
          -37.572734230027905 47.39150589914381 0 3.322947059262674 16.230028184641725 0
          20.82576325094061 -43.12614201683975 0 -29.404442159877867 -6.6570323329381935 0
          -48.88074135310182 -43.07374742736768 0 -15.693819004659524 -18.776991949103287 0
          49.2742614956165 -23.093566379026992 0 35.70662412955289 -14.438908494432013 0
          24.676827977366614 34.48562696853686 0 -28.28613766609157 46.49521791482232 0
          21.219265309149932 48.266786794162286 0 25.989900495501132 -30.673962513745963 0
          -14.741048879365302 -30.369965831724773 0 33.206792723445574 45.25947670903301 0
          26.73700517552618 36.1968809297727 0 -4.433626259916984 -16.731616061562868 0
          33.82599634129042 5.430878965379037 0 -37.91344272052366 -28.781627030961573 0
          -0.8760744559602713 -9.034520229977083 0 25.951148963832622 -14.29357740625877 0
          27.17860558051683 48.15404052238152 0 34.61617221348607 33.462162550860555 0
          -13.28055184508198 -44.93740558320786 0 47.55616001461492 34.25892934866374 0
          36.946038841117556 -42.45015674570037 0 -46.76239316488481 11.393180618063838 0
          23.568028568935404 11.552780427737098 0 16.263007945057282 45.12644264060411 0
          -23.411248530157515 41.93857265065735 0 -38.160345232049345 -18.69342940760771 0
          37.21153998486223 -26.635630373860984 0 30.80584946405935 5.653176675427417 0
          44.35923105765637 0.370346282237378 0 16.64168251311186 -34.7034267378138 0
          47.322877480901255 13.376690736606477 0 -32.1350217035443 -42.58571958176201 0
          -0.5025219679409361 28.59799073613067 0 -3.5320261053794297 38.30316610148137 0
          14.736889949280638 40.32409694969634 0 -49.402638529229115 19.356180838194604 0
          8.508964450503598 -39.46387075781778 0 49.03198966734128 -27.000797471280585 0
          -16.70921662991016 18.938285128010065 0 46.14207459237997 -27.3400906744995 0
          42.424140585792586 37.62461911345025 0 -6.825547086494495 -2.911259141055119 0
          6.210247997996007 33.76154121673389 0 -35.16911208657487 13.927818279591207 0
          49.5593687100304 13.93941034113417 0 -6.0481675260535965 -47.161165000275155 0
          -41.68490984500472 3.0367185203014984 0 28.200151364646487 23.664522522360798 0
          -30.983903256438072 -23.817273645282434 0 -4.775523168997552 -3.9973115200368454 0
          17.36371431475763 -32.304692769073746 0 -31.21691646176371 -40.35131875297581 0
          -17.61253928181918 -32.96735050248542 0 -47.52659271635095 33.064298464373394 0
          -25.51716157275273 -35.79649925661745 0 -34.4558032257712 -19.698927528483058 0
          -46.64276824331557 -9.071061809886274 0 28.312364537561464 -5.662808823633235 0
          -48.25117889494449 -21.421563451189467 0 45.139670111270334 -32.86849758057289 0
          <InformationKey name="L2_NORM_RANGE" location="vtkDataArray" length="2">
            <Value index="0">
              2.9839152875
            </Value>
            <Value index="1">
              65.61664054
            </Value>
          </InformationKey>
        </DataArray>
        <DataArray type="Float64" Name="force" NumberOfComponents="3" format="ascii" RangeMin="0.49999999999999994" RangeMax="0.5">
          -0.4891385265529043 -0.1036508651273773 0 0.05547711717462565 -0.49691275840935384 0
          -0.3937981091241534 -0.3080958442599338 0 0.025624545711262565 0.49934295094362896 0
          -0.4946530205360906 0.0729272875851141 0 -0.003078027766476552 0.4999905256553056 0
          0.44814481334584905 0.22173458519413272 0 0.38550900965438084 0.3184066636791675 0
          0.47356603110966733 -0.16042198782909278 0 -0.269912319616238 -0.42088874981327523 0
          -0.3884212470020867 0.3148474787533544 0 -0.4913528193970288 -0.09258729324583805 0
          -0.06781333756836364 -0.49538000691170325 0 -0.3168112091500712 0.38682122195772795 0
          0.4155062591209181 0.27812685708385027 0 0.49879345544292547 -0.034714389052759226 0
          -0.44501296079344643 -0.22795496205577656 0 -0.4602083474693116 0.19546937591235447 0
          0.3857830642167618 -0.31807456258482203 0 -0.4919607054675921 -0.0893009757831857 0
          0.39604258398263803 0.30520529430590665 0 0.31762736951118514 -0.386151335796479 0
          -0.4732738963410983 -0.16128180009571863 0 0.389520222271858 0.3134868361531028 0
          -0.4587086763932791 -0.1989631880562984 0 -0.40123502129089367 0.29834620441643983 0
          0.4675503982665659 -0.177190928325283 0 0.40494247177009096 0.29329438207495395 0
          -0.4962162633978502 -0.061395601955477046 0 -0.24759910812216407 -0.43439001100060864 0
          0.297478979338243 0.4018784105321872 0 -0.491214589933431 -0.09331787951154513 0
          -0.4935556896357095 0.08001738078829636 0 0.0854076604776594 0.49265153154307034 0
          0.4867387713512858 -0.11439129540065864 0 -0.0072662097608584796 0.4999471994078087 0
          0.32767203864432093 0.3776652421002953 0 -0.36273204492287436 -0.3441300097144535 0
          -0.4203133658767911 -0.27080744905803966 0 0.4712555871839691 0.1670873171365574 0
          -0.1969846407060205 0.45956180359764454 0 0.40117721371674814 -0.2984239320069129 0
          0.17231138006012306 -0.46937062999486434 0 -0.4983420140954951 -0.040684603810843996 0
          0.37773785921026 0.32758832353924006 0 -0.48182071553525235 0.13359939401470883 0
          0.25872208544706365 -0.4278584842000007 0 -0.4995615701812359 0.0209341252040316 0
          -0.34402750001746724 -0.36282927008681587 0 -0.3694727868582673 0.3368825608000292 0
          0.4306852522808979 -0.25398860893303726 0 0.4924033029754838 -0.08682734142442633 0
          0.4743657157950388 -0.15804166437449493 0 0.008143461927966696 0.4999336796294362 0
          -0.08030252796374104 0.49350937580012866 0 -0.49390032100319115 -0.07786188356920683 0
          -0.40489551236772625 -0.29335920654459857 0 0.017590080691751383 0.4996904932668398 0
          -0.19296661901133816 -0.46126335638909477 0 0.4339713656573089 -0.24833214409240356 0
          -0.4869425317098767 -0.11352079462360935 0 -0.2073549051285896 -0.45497686020182787 0
          -0.40042469053644747 -0.29943290936166367 0 0.46512145819477957 -0.18347214809545867 0
          0.19846715167638565 -0.45892351182464225 0 -0.4754635740133855 0.1547074328738535 0
          0.3649470746688052 -0.34178009405271326 0 -0.4364943143847295 -0.24387028008719083 0
          -0.3196010016482828 0.3845194400097534 0 0.4984947863589576 -0.038767872948321694 0
          -0.09088359193243577 0.49167079709645 0 0.03736330849705343 0.4986020288548313 0
          0.07532297102421645 0.4942938903487328 0 0.03739276909173681 0.49859982031650596 0
          -0.12472039317458239 -0.4841950263337879 0 -0.4567558962256733 0.2034061239566842 0
          -0.49643241575505914 -0.05962261808740104 0 0.18796073498248062 -0.4633257624014077 0
          -0.2863089292849575 0.4099112062528923 0 -0.1301072320075486 -0.48277542209534025 0
          -0.06897214297781741 0.4952199950456842 0 0.4712584864671747 -0.16707913972925437 0
          -0.3001166011143698 -0.39991252260407933 0 -0.4738470357891812 -0.1595900581922521 0
          -0.4785193939539538 0.14497996278776157 0 0.1545086632896305 0.4755282041776824 0
          -0.47326505115144146 -0.16130775356015437 0 -0.07651443722937286 -0.49411085891272655 0
          0.4639094188663501 0.18651555186387364 0 0.2622418135580119 0.4257102667563996 0
          0.24347517446583514 -0.43671482619534585 0 -0.07365257030746848 -0.4945455478387238 0
          -0.45408799569219727 -0.20929427170432313 0 -0.08356243522108078 -0.4929678685471526 0
          0.054375708067708375 0.4970344881113738 0 0.49730490202969807 0.05184432868918638 0
          -0.35975827731064924 0.347237644713925 0 0.49933604913006785 -0.025758688615193336 0
          -0.45911556717748814 -0.198022463309831 0 0.4584574373267209 -0.19954141965971825 0
          -0.334701659398084 0.371449591729711 0 0.34697100394992675 -0.3600154474713272 0
          -0.4476906689716883 -0.22265009525190463 0 0.4994035835749797 0.02441435463960235 0
          -0.23180493446260447 0.44301972005632845 0 -0.43275560129708013 0.25044478342741067 0
          0.41526044120013694 0.27849374494639484 0 0.3410589569192148 -0.36562109882387417 0
          -0.15968220963570862 -0.4738159895210984 0 -0.4947567094798423 -0.07222048479952851 0
          0.2025400971896987 0.45714057906773864 0 0.04727376112723619 -0.49776017469147227 0
          0.18536969453445654 -0.4643684704501397 0 0.49856949755971414 -0.03779492165693929 0
          -0.060278215769015306 -0.4963532378293749 0 -0.08588517670850837 -0.49256850936874585 0
          -0.4846930110142695 -0.12277086410839198 0 -0.4294388526586025 -0.2560903587159484 0
          -0.45930325409573225 0.1975867424122155 0 0.2988238394034407 -0.40087942452087344 0
          0.49357331247876535 0.07990860534847945 0 -0.15991747467438044 -0.4737366370608979 0
          0.48347836691335655 -0.1274702660497489 0 -0.028980678973529753 0.4991594136608396 0
          0.2333917625403962 -0.44218580390859147 0 -0.2851120035878974 -0.4107446231055189 0
          -0.4975714459517836 -0.04922048530288286 0 0.35928175033713305 -0.3477306772125318 0
          -0.2505468218938303 0.43269653342602743 0 -0.4179212251585294 0.2744846982292342 0
          0.364296414400534 0.3424735354080873 0 0.40776563057070453 0.2893565111160897 0
          0.4944848943497974 0.07405868794320938 0 -0.3679092843658525 0.3385893655704595 0
          -0.4429076481370593 0.2320189975448107 0 -0.4975164130746298 -0.04977367498341184 0
          0.38452061142837807 0.3195995922818837 0 0.3737999208015129 0.33207471931597365 0
          -0.24825226491025937 -0.4340170652945877 0 0.23940144227613844 0.43896121632338403 0
          0.20606917091076302 -0.455560640091032 0 0.4997543829696116 0.015670248966203427 0
          -0.4411868727419268 0.23527461257050006 0 0.4806088141281365 0.13789549587403624 0
          0.3687725104068161 -0.3376489827739078 0 -0.40090193166236704 -0.2987936431542391 0
          -0.05661499217469499 0.4967844025943842 0 -0.4980976003254812 0.04357499913938221 0
          -0.35818939926599686 0.3488557785868887 0 0.2790974284076408 0.4148549450786887 0
          -0.03738072565349703 -0.4986007233745434 0 0.05929402872448086 0.49647176974891577 0
          0.16927570112648302 0.4704739493405959 0 -0.18354664462571096 -0.4650920653447476 0
          <InformationKey name="L2_NORM_RANGE" location="vtkDataArray" length="2">
            <Value index="0">
              0.5
            </Value>
            <Value index="1">
              0.5
            </Value>
          </InformationKey>
        </DataArray>
        <DataArray type="Float64" Name="radius" format="ascii" RangeMin="1" RangeMax="1">
          1 1 1 1 1 1
          1 1 1 1 1 1
          1 1 1 1 1 1
          1 1 1 1 1 1
          1 1 1 1 1 1
          1 1 1 1 1 1
          1 1 1 1 1 1
          1 1 1 1 1 1
          1 1 1 1 1 1
          1 1 1 1 1 1
          1 1 1 1 1 1
          1 1 1 1 1 1
          1 1 1 1 1 1
          1 1 1 1 1 1
          1 1 1 1 1 1
          1 1 1 1 1 1
          1 1 1 1 1 1
          1 1 1 1 1 1
          1 1 1 1 1 1
          1 1 1 1 1 1
          1 1 1 1 1 1
          1 1 1 1 1 1
          1 1 1 1 1 1
          1 1 1 1 1 1
          1 1 1 1 1 1
          1 1 1 1
        </DataArray>
      </PointData>
      <CellData>
      </CellData>
      <Points>
        <DataArray type="Float32" Name="Points" NumberOfComponents="3" format="ascii" RangeMin="3.037751748554668" RangeMax="67.13469817433065">
          -37.5826416015625 33.88028335571289 0 46.84941864013672 -28.10965347290039 0
          -19.786226272583008 4.20175313949585 0 -31.277502059936523 49.77619934082031 0
          48.65213394165039 46.26054000854492 0 22.583515167236328 48.79520797729492 0
          -39.596824645996094 29.52508544921875 0 -19.934995651245117 -50.35421371459961 0
          -38.96271896362305 13.49555492401123 0 37.53184127807617 0.6671568751335144 0
          29.85115623474121 -13.548802375793457 0 -28.742708206176758 18.03502082824707 0
          -10.908605575561523 23.748157501220703 0 -3.2621028423309326 -7.537586212158203 0
          -32.297576904296875 -19.7507381439209 0 28.99142837524414 -18.750873565673828 0
          37.11433792114258 -35.270179748535156 0 48.96293640136719 31.40476417541504 0
          -37.6750602722168 26.324722290039062 0 -1.514796257019043 15.588726997375488 0
          -37.951622009277344 -28.64841651916504 0 -44.94200134277344 -46.40630340576172 0
          -8.8508882522583 -4.061323165893555 0 -1.161493182182312 29.95671272277832 0
          41.90731430053711 30.823028564453125 0 21.02713394165039 -49.46131896972656 0
          20.602537155151367 14.590911865234375 0 -4.361172199249268 27.305992126464844 0
          7.691870212554932 37.69618606567383 0 30.87029266357422 -47.716514587402344 0
          32.64093017578125 32.64674377441406 0 43.83340072631836 -8.671841621398926 0
          -7.590343952178955 7.770741939544678 0 -34.327239990234375 26.84642219543457 0
          -26.1815185546875 31.266401290893555 0 49.89619827270508 -17.540237426757812 0
          -20.22598648071289 -48.86957931518555 0 -28.92269515991211 40.58501434326172 0
          34.634307861328125 45.63583755493164 0 27.512863159179688 49.2684326171875 0
          -43.36124038696289 29.68995475769043 0 9.369932174682617 23.906753540039062 0
          19.31913948059082 18.18910026550293 0 -10.550225257873535 5.919240474700928 0
          -29.333335876464844 2.200745105743408 0 -9.441306114196777 -15.036137580871582 0
          9.488744735717773 -13.370423316955566 0 46.60862350463867 -34.872833251953125 0
          -10.689419746398926 -11.50611686706543 0 22.433717727661133 -11.511143684387207 0
          42.33152389526367 -6.3931565284729 0 35.215972900390625 11.874076843261719 0
          -37.23844909667969 -2.932831287384033 0 -15.74797534942627 3.5270307064056396 0
          21.661279678344727 48.64675521850586 0 22.02838706970215 41.859806060791016 0
          1.203532338142395 5.868175029754639 0 0.374114990234375 -3.5409955978393555 0
          4.938288688659668 -5.452568531036377 0 34.69632339477539 10.803513526916504 0
          0.3811430037021637 47.40089416503906 0 -47.10456466674805 47.69437026977539 0
          -13.834922790527344 17.797292709350586 0 -15.250602722167969 35.46559524536133 0
          -45.537933349609375 15.66512393951416 0 24.634397506713867 -36.014320373535156 0
          48.050689697265625 -40.29075622558594 0 -22.055509567260742 29.90233039855957 0
          -42.25899887084961 12.96117115020752 0 -49.047855377197266 18.87662696838379 0
          2.6546356678009033 -5.882296562194824 0 -29.997501373291016 -35.513954162597656 0
          -11.15268611907959 26.674476623535156 0 -46.67974090576172 -24.38765525817871 0
          1.404510736465454 32.95646286010742 0 47.4483757019043 32.30765151977539 0
          -19.264253616333008 -44.00163269042969 0 -24.205846786499023 3.668656826019287 0
          39.585941314697266 -14.877227783203125 0 -47.46736145019531 -33.34632873535156 0
          37.77397918701172 -29.496009826660156 0 -23.12353515625 -0.8462395668029785 0
          -27.95146369934082 -0.5454034805297852 0 44.62419128417969 15.253262519836426 0
          26.54635238647461 -6.566507816314697 0 4.638469696044922 -44.299285888671875 0
          -17.094324111938477 -9.16797161102295 0 40.55168151855469 31.375473022460938 0
          -24.759750366210938 -36.31182098388672 0 -1.4808235168457031 -11.604772567749023 0
          21.45137596130371 -21.089298248291016 0 11.957000732421875 31.299259185791016 0
          -18.489158630371094 -11.869536399841309 0 -14.773414611816406 31.36810874938965 0
          17.478418350219727 -12.324143409729004 0 -4.250182628631592 -19.6771297454834 0
          40.40275192260742 -1.4158604145050049 0 25.513580322265625 -38.63523864746094 0
          -10.310458183288574 37.441532135009766 0 -13.084589004516602 42.04787826538086 0
          5.155227184295654 -36.285701751708984 0 -29.86079978942871 45.07403564453125 0
          49.98500061035156 -26.632091522216797 0 -48.267982482910156 -11.433528900146484 0
          28.488178253173828 -2.9975926876068115 0 4.18758487701416 -48.01020050048828 0
          39.792030334472656 -29.90270233154297 0 38.51311492919922 -5.689540386199951 0
          -34.55841064453125 -25.76279640197754 0 29.369977951049805 -2.9983348846435547 0
          -41.136070251464844 14.616557121276855 0 13.983589172363281 8.103994369506836 0
          22.2795352935791 -14.761384010314941 0 18.422544479370117 21.121187210083008 0
          -33.565364837646484 -36.333744049072266 0 -5.192949295043945 -46.18364715576172 0
          29.840900421142578 -33.087257385253906 0 32.717403411865234 -16.742652893066406 0
          15.912951469421387 -8.305331230163574 0 27.89528465270996 -38.78079605102539 0