<?xml version="1.0"?>
<VTKFile type="PolyData" version="0.1" byte_order="LittleEndian" header_type="UInt32" compressor="vtkZLibDataCompressor">
  <PolyData>
    <Piece NumberOfPoints="154" NumberOfVerts="0" NumberOfLines="0" NumberOfStrips="0" NumberOfPolys="0">
      <PointData>
        <DataArray type="Int32" Name="id" format="ascii" RangeMin="0" RangeMax="153">
          0 1 2 3 4 5
          6 7 8 9 10 11
          12 13 14 15 16 17
          18 19 20 21 22 23
          24 25 26 27 28 29
          30 31 32 33 34 35
          36 37 38 39 40 41
          42 43 44 45 46 47
          48 49 50 51 52 53
          54 55 56 57 58 59
          60 61 62 63 64 65
          66 67 68 69 70 71
          72 73 74 75 76 77
          78 79 80 81 82 83
          84 85 86 87 88 89
          90 91 92 93 94 95
          96 97 98 99 100 101
          102 103 104 105 106 107
          108 109 110 111 112 113
          114 115 116 117 118 119
          120 121 122 123 124 125
          126 127 128 129 130 131
          132 133 134 135 136 137
          138 139 140 141 142 143
          144 145 146 147 148 149
          150 151 152 153
        </DataArray>
        <DataArray type="Float64" Name="director" NumberOfComponents="3" format="ascii" RangeMin="0.9999999999999999" RangeMax="1">
          -0.9788376000428467 -0.20463859055016986 0 0.1955401626589806 -0.9806956942840626 0
          -0.7371489047737165 -0.6757303398478643 0 0.22680854011790644 0.9739393647089043 0
          -0.972506758266289 0.23287465539726251 0 0.11958131418045202 0.9928244101042621 0
          0.9261962222113316 0.3770418517372543 0 0.8227440405352303 0.5684120369624163 0
          0.9148376294735854 -0.4038218811544899 0 -0.4469340753895105 -0.8945668964676277 0
          -0.772247250363801 0.6353221106695003 0 -0.9998327633161062 -0.01828784841580048 0
          -0.24394014331820443 -0.9697902899482412 0 -0.6228726854109939 0.7823232182217891 0
          0.7299397699246732 0.6835114719463858 0 0.9172559603694137 -0.39829825905567884 0
          -0.9428226773932208 -0.33329476292477 0 -0.9851957746597452 0.17143303530120635 0
          0.9353742513339972 -0.35365945476031624 0 -0.9764303466006724 -0.21583275524648898 0
          0.6573030117952637 0.7536263999389057 0 0.5690118777335914 -0.8223293032587933 0
          -0.9143675974226452 -0.404885041442061 0 0.7191524022067717 0.6948523745373758 0
          -0.8607979853155014 -0.5089467835410434 0 -0.7444920188875056 0.6676313607169798 0
          0.9621016508284996 -0.27269105865993426 0 0.7829061040074334 0.6221398816246245 0
          -0.9871102971236658 -0.16004143623583258 0 -0.48639344475789525 -0.8737399023144978 0
          0.6232673209469571 0.782008853300014 0 -0.988707166797703 -0.14986039611204557 0
          -0.9862005772100586 0.16555488972104468 0 0.21296087046367596 0.9770607287427704 0
          0.9842482061375951 -0.17679216248161558 0 0.11606702355245987 0.9932413835738384 0
          0.7812702912361874 0.6241928644511429 0 -0.8368478402111087 -0.5474355599830931 0
          -0.9353967538942696 -0.35359993326365774 0 0.984373228500753 0.17609471034362204 0
          -0.36154899082119013 0.9323531129546246 0 0.9189030641748359 -0.39448340731911324 0
          0.08771050392826592 -0.9961460071197644 0 -0.9962954174763727 -0.08599675061059073 0
          0.7700291233784208 0.638008737517803 0 -0.8903034550972303 0.455367717171446 0
          0.4146097666754215 -0.909999308448832 0 -0.9863897504454806 0.16442402566566258 0
          -0.7538674618203117 -0.6570265215412547 0 -0.675582804832076 0.7372841201431272 0
          0.7859557271533606 -0.618282779118772 0 0.9702955049015646 -0.24192278348228793 0
          0.9799493171771839 -0.19924692159220692 0 -0.11715807055497104 0.9931132797943226 0
          -0.4567207117201617 0.8896101345453686 0 -0.9974333776185026 -0.07160067885533988 0
          -0.8488101596167157 -0.528697751963677 0 -0.2138814272955084 0.9768596291474206 0
          -0.5193751004691125 -0.8545463738222164 0 0.7972279357888545 -0.6036784064366075 0
          -0.9516407184756097 -0.30721318809456283 0 -0.2814981130091753 -0.959561781425393 0
          -0.8518847760096446 -0.5237292510477123 0 0.9644174220225559 -0.2643842584182489 0
          0.403471414917812 -0.9149922498820516 0 -0.9486903702815412 0.3162065485328731 0
          0.7491847107931773 -0.6623611319467223 0 -0.9338595807925051 -0.3576398794346719 0
          -0.4174730536567968 0.9086893030461343 0 0.9993095830898099 0.03715315793940498 0
          0.0739555291439875 0.9972615402736801 0 -0.0348631425081344 0.9993920958735153 0
          0.27479802945304627 0.9615019724414104 0 -0.026924975275653677 0.9996374571345381 0
          -0.23256727603820657 -0.9725803113965287 0 -0.9539630948970304 0.299924013000759 0
          -0.999531564716104 0.03060475675735235 0 0.4827482967068999 -0.8757591461278534 0
          -0.6092773577606212 0.7929571875708271 0 -0.15993562666013864 -0.9871274463435958 0
          -0.03267985681158737 0.9994658708324032 0 0.9502917418308554 -0.3113608925476655 0
          -0.6156241089957734 -0.7880399459565233 0 -0.8998799216490011 -0.43613773812063955 0
          -0.9682945286497275 0.24981134038910627 0 0.30328603738371224 0.9528995642396346 0
          -0.9280817420968306 -0.37237652985454395 0 -0.4642212801170929 -0.8857192574887641 0
          0.829007422374775 0.5592376003520609 0 0.5178736824528275 0.8554570994636423 0
          0.6020451384044434 -0.7984620537781207 0 -0.20145031033446337 -0.9794987353060485 0
          -0.9412653453183516 -0.33766780969278726 0 -0.15823099117048728 -0.987402123470071 0
          0.1633657326957913 0.9865655768273933 0 0.9998895909873344 -0.0148595368427489 0
          -0.8600523048831907 0.5102058730209906 0 0.9900522399631536 0.1407002563748269 0
          -0.8058452014218622 -0.5921262630092996 0 0.8827742112074518 -0.4697975010864375 0
          -0.805421411528649 0.5927025812759708 0 0.7872463899908431 -0.6166385662982696 0
          -0.9229193297074589 -0.38499339066058613 0 0.9999827692998465 -0.005870358030817347 0
          -0.3184973319428385 0.9479237572427929 0 -0.8476475817665018 0.5305596829060815 0
          0.9566187838022712 0.2913425861021069 0 0.7659861944057946 -0.6428570214127929 0
          -0.3638052540256102 -0.9314750330220135 0 -0.999928937476245 -0.011921409213165233 0
          0.48017363783219413 0.8771734592034787 0 0.19278384440352792 -0.9812412493046735 0
          0.22418052741018818 -0.9745476341000936 0 0.9997669059935519 0.021590129227967565 0
          -0.39129539685741144 -0.9202651315779605 0 -0.266254321506069 -0.963902814748117 0
          -0.9835613842133928 -0.1805740941670059 0 -0.893532203762072 -0.44899911006603904 0
          -0.9243007275955905 0.38166499049069474 0 0.5954655919265927 -0.8033808118392626 0
          0.9709806141462718 0.23915820486056677 0 -0.48674463612687763 -0.873544308665401 0
          0.9770981152674394 -0.21278926932723297 0 -0.14519399136532396 0.9894032064185997 0
          0.42816807699015696 -0.9036991190913882 0 -0.6102141253580285 -0.7922365311026349 0
          -0.9868054812115904 -0.16191029075003732 0 0.8252926180358304 -0.564705316617052 0
          -0.45042662658661886 0.892813448634035 0 -0.828669317589934 0.5597384765093721 0
          0.7725317182536554 0.6349761761610075 0 0.6788524088242969 0.7342747490098306 0
          0.9981340789040778 0.061060302409243886 0 -0.8260796061565904 0.5635534440425084 0
          -0.8931520996399037 0.4497547408408626 0 -0.9948641077442425 -0.10121959850864944 0
          0.8119078329965499 0.5837856376435159 0 0.8075288124051578 0.5898281250801078 0
          -0.5924196452417093 -0.8056295450960617 0 0.3045284068704984 0.9525032542773364 0
          0.5628830858864422 -0.8265365277003529 0 0.9987913168316476 0.049151860816283754 0
          -0.8931292734210966 0.4498000677615602 0 0.966736128591319 0.25577579572013626 0
          0.6236249948057272 -0.781723650565567 0 -0.9147868248990466 -0.403936956703792 0
          0.042779481448258896 0.9990845389490411 0 -0.996801742737497 0.07991423950391414 0
          -0.8245912522176185 0.5657289693538593 0 0.48518465451046 0.87441171711475 0
          0.07111649460369504 -0.9974680166277426 0 0.12711162187219407 0.9918884189186908 0
          0.5505859120959371 0.8347785055938401 0 -0.2773045352572017 -0.9607820745235557 0
          <InformationKey name="L2_NORM_RANGE" location="vtkDataArray" length="2">
            <Value index="0">
              1
            </Value>
            <Value index="1">
              1
            </Value>
          </InformationKey>
        </DataArray>
        <DataArray type="Float64" Name="velocity" NumberOfComponents="3" format="ascii" RangeMin="2.98391528750295" RangeMax="65.61664053985334">
          20.472372037415383 -30.489259884928693 0 -7.778161120144524 43.605506408926914 0
          -35.778279556590725 14.318100471258902 0 -2.7267860528004704 -6.306708942777526 0
          -25.56803597993237 0.5919415230237348 0 40.69440930810454 -42.34960265147567 0
          21.390392053252754 11.720491675449018 0 -31.091580543867785 -10.301819378431787 0
          -22.233594277397 35.80993014386058 0 40.8936574712134 11.727908496204755 0
          -31.918129728714472 1.502371966558826 0 32.46317064138093 -14.067556233339687 0
          31.61170207931397 -20.66117562390716 0 -32.788218903188394 -0.7210412736466054 0
          -30.467523066969363 36.43074923190564 0 -29.58028331655805 11.627227611362315 0
          37.80505508071815 -10.753091333426255 0 44.65772551607054 -33.330173144632525 0
          47.18774005931614 6.396489460552942 0 9.836891189866492 -36.87781496106794 0
          6.677739541459459 5.438027088135769 0 -18.951003944933063 -37.93510690561732 0
          23.77908201111339 -25.727634747998636 0 32.285914726045576 -31.45240287607238 0
          -18.732306147503376 38.172541468590836 0 17.42129460906331 23.929755673071398 0
          -43.74567596165927 -36.843843838172035 0 -41.00470913383489 -49.1685554695042 0
          -4.3489588147394045 13.430332075080756 0 2.9762992276979077 -0.21305715242312573 0
          -16.420210149222868 -24.717665071237764 0 -26.63245586108499 -32.68369682188443 0
          9.59810303037343 22.68931438280859 0 37.757309281314306 20.71597266757422 0
          -26.523439665569285 -2.200425364398683 0 -48.17882370239545 24.733119867345934 0
          15.472358145094617 -42.19330576503555 0 -2.7230899171649696 49.647506705142575 0
          3.209752212846098 39.943600631846664 0 27.290092728339346 -29.624030405099575 0
          40.710862227344634 -12.518743865476708 0 34.808888796398136 -17.330075407408792 0
          -17.326333983387784 15.921061981020685 0 8.676498234140595 -45.101679767889145 0
          26.99656655139428 -0.8247828969564566 0 -1.181598492863479 -7.087342925864128 0
          -10.527228461045638 27.645380145270124 0 47.47543864880045 24.850515939083976 0
          13.45020038299144 -42.781974126121774 0 13.33632968921519 2.89206325620421 0
          -20.383234879262602 -17.467213088655853 0 13.111992425538233 49.45054225750374 0
          1.6047826830209004 22.445391370448775 0 -25.442525168919026 -16.766088433362327 0
          24.860911549332883 18.296648546241826 0 18.127137052491975 -42.11576276898946 0
          -4.106371249565804 19.81468592825003 0 -43.2115168522386 -43.085994704941484 0
          2.7042817825837204 -23.795120132132308 0 -1.6624837545658195 -36.91945356486498 0
          -40.55592314206473 -37.96183180819797 0 46.98372058379586 25.62816454897687 0
          -23.182362140209666 22.4905983535036 0 -8.42374893276238 -2.5281598168396826 0
          -44.45585735866184 11.374414308737222 0 -0.9380815156004232 40.44748670579848 0
          43.5214270198436 41.82766196839604 0 -19.617472876146607 29.010177679462174 0
          -27.377259211045168 -5.104813753149479 0 1.0108912986547693 -26.93680745999526 0
          21.18807799653547 48.4452609761332 0 15.521324819791857 -22.733301715898534 0
          -3.0984436752635744 -49.699879474370995 0 -5.357606698271908 47.09441502974741 0
          -19.533649987483585 -28.48909553641595 0 -25.241492794096537 30.645102659141713 0
          -1.3628901407151872 -9.249808436218693 0 -28.437070584076316 4.0252086974848424 0
          22.302423751473526 -21.630608392707323 0 4.286209731170565 25.592468486596516 0
          -16.80227135673981 30.176297340482108 0 35.70724318896097 -48.51082997011254 0
          38.494266527440914 9.308694076898924 0 -41.37827709570729 42.48759424258512 0
          41.371957205314274 48.07567751376408 0 40.00221093710812 44.971458396046486 0
          43.45219546574209 -49.16757290067578 0 27.77940311086799 -47.40411222574361 0
          8.787704962513757 14.978077069606684 0 -17.176354508003442 -38.89206379839693 0
          -37.572734230027905 47.39150589914381 0 3.322947059262674 16.230028184641725 0
          20.82576325094061 -43.12614201683975 0 -29.404442159877867 -6.6570323329381935 0
          -48.88074135310182 -43.07374742736768 0 -15.693819004659524 -18.776991949103287 0
          49.2742614956165 -23.093566379026992 0 35.70662412955289 -14.438908494432013 0
          24.676827977366614 34.48562696853686 0 -28.28613766609157 46.49521791482232 0
          21.219265309149932 48.266786794162286 0 25.989900495501132 -30.673962513745963 0
          -14.741048879365302 -30.369965831724773 0 33.206792723445574 45.25947670903301 0
          26.73700517552618 36.1968809297727 0 -4.433626259916984 -16.731616061562868 0
          33.82599634129042 5.430878965379037 0 -37.91344272052366 -28.781627030961573 0
          -0.8760744559602713 -9.034520229977083 0 25.951148963832622 -14.29357740625877 0
          27.17860558051683 48.15404052238152 0 34.61617221348607 33.462162550860555 0
          -13.28055184508198 -44.93740558320786 0 47.55616001461492 34.25892934866374 0
          36.946038841117556 -42.45015674570037 0 -46.76239316488481 11.393180618063838 0
          23.568028568935404 11.552780427737098 0 16.263007945057282 45.12644264060411 0
          -23.411248530157515 41.93857265065735 0 -38.160345232049345 -18.69342940760771 0
          37.21153998486223 -26.635630373860984 0 30.80584946405935 5.653176675427417 0
          44.35923105765637 0.370346282237378 0 16.64168251311186 -34.7034267378138 0
          47.322877480901255 13.376690736606477 0 -32.1350217035443 -42.58571958176201 0
          -0.5025219679409361 28.59799073613067 0 -3.5320261053794297 38.30316610148137 0
          14.736889949280638 40.32409694969634 0 -49.402638529229115 19.356180838194604 0
          8.508964450503598 -39.46387075781778 0 49.03198966734128 -27.000797471280585 0
          -16.70921662991016 18.938285128010065 0 46.14207459237997 -27.3400906744995 0
          42.424140585792586 37.62461911345025 0 -6.825547086494495 -2.911259141055119 0
          6.210247997996007 33.76154121673389 0 -35.16911208657487 13.927818279591207 0
          49.5593687100304 13.93941034113417 0 -6.0481675260535965 -47.161165000275155 0
          -41.68490984500472 3.0367185203014984 0 28.200151364646487 23.664522522360798 0
          -30.983903256438072 -23.817273645282434 0 -4.775523168997552 -3.9973115200368454 0
          17.36371431475763 -32.304692769073746 0 -31.21691646176371 -40.35131875297581 0
          -17.61253928181918 -32.96735050248542 0 -47.52659271635095 33.064298464373394 0
          -25.51716157275273 -35.79649925661745 0 -34.4558032257712 -19.698927528483058 0
          -46.64276824331557 -9.071061809886274 0 28.312364537561464 -5.662808823633235 0
          -48.25117889494449 -21.421563451189467 0 45.139670111270334 -32.86849758057289 0
          <InformationKey name="L2_NORM_RANGE" location="vtkDataArray" length="2">
            <Value index="0">
              2.9839152875
            </Value>
            <Value index="1">
              65.61664054
            </Value>
          </InformationKey>
        </DataArray>
        <DataArray type="Float64" Name="force" NumberOfComponents="3" format="ascii" RangeMin="0.49999999999999994" RangeMax="0.5">
          -0.48941880002142335 -0.10231929527508493 0 0.0977700813294903 -0.4903478471420313 0
          -0.36857445238685826 -0.3378651699239322 0 0.11340427005895322 0.48696968235445215 0
          -0.4862533791331445 0.11643732769863126 0 0.05979065709022601 0.4964122050521311 0
          0.4630981111056658 0.18852092586862715 0 0.41137202026761516 0.28420601848120813 0
          0.4574188147367927 -0.20191094057724496 0 -0.22346703769475526 -0.44728344823381383 0
          -0.3861236251819005 0.31766105533475014 0 -0.4999163816580531 -0.00914392420790024 0
          -0.12197007165910222 -0.4848951449741206 0 -0.31143634270549697 0.39116160911089454 0
          0.3649698849623366 0.3417557359731929 0 0.45862798018470685 -0.19914912952783942 0
          -0.4714113386966104 -0.166647381462385 0 -0.4925978873298726 0.08571651765060317 0
          0.4676871256669986 -0.17682972738015812 0 -0.4882151733003362 -0.10791637762324449 0
          0.32865150589763187 0.37681319996945284 0 0.2845059388667957 -0.41116465162939664 0
          -0.4571837987113226 -0.2024425207210305 0 0.35957620110338584 0.3474261872686879 0
          -0.4303989926577507 -0.2544733917705217 0 -0.3722460094437528 0.3338156803584899 0
          0.4810508254142498 -0.13634552932996713 0 0.3914530520037167 0.31106994081231226 0
          -0.4935551485618329 -0.08002071811791629 0 -0.24319672237894763 -0.4368699511572489 0
          0.31163366047347857 0.391004426650007 0 -0.4943535833988515 -0.07493019805602279 0
          -0.4931002886050293 0.08277744486052234 0 0.10648043523183798 0.4885303643713852 0
          0.49212410306879756 -0.08839608124080779 0 0.05803351177622994 0.4966206917869192 0
          0.3906351456180937 0.31209643222557143 0 -0.41842392010555435 -0.27371777999154656 0
          -0.4676983769471348 -0.17679996663182887 0 0.4921866142503765 0.08804735517181102 0
          -0.18077449541059507 0.4661765564773123 0 0.45945153208741796 -0.19724170365955662 0
          0.04385525196413296 -0.4980730035598822 0 -0.49814770873818637 -0.042998375305295364 0
          0.3850145616892104 0.3190043687589015 0 -0.44515172754861515 0.227683858585723 0
          0.20730488333771074 -0.454999654224416 0 -0.4931948752227403 0.08221201283283129 0
          -0.37693373091015586 -0.32851326077062737 0 -0.337791402416038 0.3686420600715636 0
          0.3929778635766803 -0.309141389559386 0 0.4851477524507823 -0.12096139174114397 0
          0.48997465858859196 -0.09962346079610346 0 -0.05857903527748552 0.4965566398971613 0
          -0.22836035586008085 0.4448050672726843 0 -0.4987166888092513 -0.03580033942766994 0
          -0.42440507980835784 -0.2643488759818385 0 -0.1069407136477542 0.4884298145737103 0
          -0.25968755023455625 -0.4272731869111082 0 0.39861396789442727 -0.30183920321830376 0
          -0.47582035923780486 -0.15360659404728141 0 -0.14074905650458766 -0.4797808907126965 0
          -0.4259423880048223 -0.26186462552385614 0 0.48220871101127794 -0.13219212920912446 0
          0.201735707458906 -0.4574961249410258 0 -0.4743451851407706 0.15810327426643656 0
          0.37459235539658864 -0.33118056597336115 0 -0.46692979039625254 -0.17881993971733595 0
          -0.2087365268283984 0.45434465152306713 0 0.49965479154490494 0.01857657896970249 0
          0.03697776457199375 0.49863077013684004 0 -0.0174315712540672 0.49969604793675765 0
          0.13739901472652313 0.4807509862207052 0 -0.013462487637826839 0.49981872856726905 0
          -0.11628363801910328 -0.48629015569826434 0 -0.4769815474485152 0.1499620065003795 0
          -0.499765782358052 0.015302378378676176 0 0.24137414835344995 -0.4378795730639267 0
          -0.3046386788803106 0.39647859378541356 0 -0.07996781333006932 -0.4935637231717979 0
          -0.016339928405793683 0.4997329354162016 0 0.4751458709154277 -0.15568044627383276 0
          -0.3078120544978867 -0.39401997297826163 0 -0.44993996082450055 -0.21806886906031978 0
          -0.48414726432486377 0.12490567019455313 0 0.15164301869185612 0.4764497821198173 0
          -0.4640408710484153 -0.18618826492727197 0 -0.23211064005854645 -0.44285962874438206 0
          0.4145037111873875 0.27961880017603047 0 0.25893684122641375 0.4277285497318212 0
          0.3010225692022217 -0.39923102688906037 0 -0.10072515516723168 -0.48974936765302424 0
          -0.4706326726591758 -0.16883390484639363 0 -0.07911549558524364 -0.4937010617350355 0
          0.08168286634789565 0.49328278841369666 0 0.4999447954936672 -0.00742976842137445 0
          -0.43002615244159537 0.2551029365104953 0 0.4950261199815768 0.07035012818741344 0
          -0.4029226007109311 -0.2960631315046498 0 0.4413871056037259 -0.23489875054321874 0
          -0.4027107057643245 0.2963512906379854 0 0.39362319499542153 -0.3083192831491348 0
          -0.46145966485372947 -0.19249669533029307 0 0.49999138464992327 -0.0029351790154086735 0
          -0.15924866597141926 0.47396187862139644 0 -0.4238237908832509 0.26527984145304073 0
          0.4783093919011356 0.14567129305105345 0 0.3829930972028973 -0.32142851070639644 0
          -0.1819026270128051 -0.46573751651100675 0 -0.4999644687381225 -0.005960704606582616 0
          0.24008681891609707 0.43858672960173933 0 0.09639192220176396 -0.49062062465233675 0
          0.11209026370509409 -0.4872738170500468 0 0.49988345299677595 0.010795064613983782 0
          -0.19564769842870572 -0.46013256578898026 0 -0.1331271607530345 -0.4819514073740585 0
          -0.4917806921066964 -0.09028704708350295 0 -0.446766101881036 -0.22449955503301952 0
          -0.4621503637977952 0.19083249524534737 0 0.2977327959632963 -0.4016904059196313 0
          0.4854903070731359 0.11957910243028338 0 -0.24337231806343881 -0.4367721543327005 0
          0.4885490576337197 -0.10639463466361648 0 -0.07259699568266198 0.49470160320929984 0
          0.21408403849507848 -0.4518495595456941 0 -0.3051070626790143 -0.39611826555131746 0
          -0.4934027406057952 -0.08095514537501866 0 0.4126463090179152 -0.282352658308526 0
          -0.22521331329330943 0.4464067243170175 0 -0.414334658794967 0.27986923825468607 0
          0.3862658591268277 0.31748808808050377 0 0.33942620441214844 0.3671373745049153 0
          0.4990670394520389 0.030530151204621943 0 -0.4130398030782952 0.2817767220212542 0
          -0.44657604981995186 0.2248773704204313 0 -0.49743205387212125 -0.05060979925432472 0
          0.40595391649827495 0.29189281882175794 0 0.4037644062025789 0.2949140625400539 0
          -0.29620982262085466 -0.40281477254803083 0 0.1522642034352492 0.4762516271386682 0
          0.2814415429432211 -0.41326826385017645 0 0.4993956584158238 0.024575930408141877 0
          -0.4465646367105483 0.2249000338807801 0 0.4833680642956595 0.12788789786006813 0
          0.3118124974028636 -0.3908618252827835 0 -0.4573934124495233 -0.201968478351896 0
          0.021389740724129448 0.4995422694745206 0 -0.4984008713687485 0.03995711975195707 0
          -0.41229562610880927 0.28286448467692965 0 0.24259232725523 0.437205858557375 0
          0.03555824730184752 -0.4987340083138713 0 0.06355581093609704 0.4959442094593454 0
          0.27529295604796855 0.4173892527969201 0 -0.13865226762860086 -0.48039103726177784 0
          <InformationKey name="L2_NORM_RANGE" location="vtkDataArray" length="2">
            <Value index="0">
              0.5
            </Value>
            <Value index="1">
              0.5
            </Value>
          </InformationKey>
        </DataArray>
        <DataArray type="Float64" Name="radius" format="ascii" RangeMin="1" RangeMax="1">
          1 1 1 1 1 1
          1 1 1 1 1 1
          1 1 1 1 1 1
          1 1 1 1 1 1
          1 1 1 1 1 1
          1 1 1 1 1 1
          1 1 1 1 1 1
          1 1 1 1 1 1
          1 1 1 1 1 1
          1 1 1 1 1 1
          1 1 1 1 1 1
          1 1 1 1 1 1
          1 1 1 1 1 1
          1 1 1 1 1 1
          1 1 1 1 1 1
          1 1 1 1 1 1
          1 1 1 1 1 1
          1 1 1 1 1 1
          1 1 1 1 1 1
          1 1 1 1 1 1
          1 1 1 1 1 1
          1 1 1 1 1 1
          1 1 1 1 1 1
          1 1 1 1 1 1
          1 1 1 1 1 1
          1 1 1 1
        </DataArray>
      </PointData>
      <CellData>
      </CellData>
      <Points>
        <DataArray type="Float32" Name="Points" NumberOfComponents="3" format="ascii" RangeMin="2.9816804123256726" RangeMax="67.19367302189721">
          -37.76103210449219 33.86741638183594 0 46.763004302978516 -27.98221778869629 0
          -19.75526237487793 4.376040935516357 0 -31.142671585083008 49.859310150146484 0
          48.7357292175293 46.25817108154297 0 22.57952308654785 48.56938171386719 0
          -39.73140335083008 29.483564376831055 0 -19.83399772644043 -50.32118606567383 0
          -38.981937408447266 13.273641586303711 0 37.49595642089844 0.7874332666397095 0
          29.935367584228516 -13.532157897949219 0 -28.78195571899414 17.98786163330078 0
          -10.740876197814941 23.824861526489258 0 -3.2512667179107666 -7.479305267333984 0
          -32.352142333984375 -19.705707550048828 0 28.88633918762207 -18.82866859436035 0
          37.2342414855957 -35.313053131103516 0 48.80242919921875 31.39598846435547 0
          -37.76454544067383 26.154970169067383 0 -1.4442172050476074 15.678288459777832 0
          -37.94432067871094 -28.57197380065918 0 -44.94791030883789 -46.080081939697266 0
          -8.857166290283203 -4.151487350463867 0 -1.138400912284851 29.937759399414062 0
          41.7628059387207 30.81743621826172 0 21.070415496826172 -49.66913604736328 0
          20.490219116210938 14.538355827331543 0 -4.279831409454346 27.20037269592285 0
          7.842031955718994 37.75726318359375 0 30.80748748779297 -47.7514533996582 0
          32.99570083618164 32.77106857299805 0 43.76447296142578 -8.573503494262695 0
          -7.807964324951172 7.616475582122803 0 -34.17210388183594 26.823427200317383 0
          -26.23564910888672 31.479406356811523 0 49.71902847290039 -17.499868392944336 0
          -20.227352142333984 -49.06220626831055 0 -28.92718505859375 40.57337188720703 0
          34.5743408203125 45.84355163574219 0 27.530839920043945 49.36098098754883 0
          -43.347469329833984 29.5836181640625 0 9.440654754638672 23.81359100341797 0
          19.262107849121094 18.230993270874023 0 -10.597689628601074 5.859313488006592 0
          -29.38958740234375 2.2225165367126465 0 -9.547294616699219 -14.831685066223145 0
          9.434138298034668 -13.553732872009277 0 46.60145568847656 -34.89888000488281 0
          -10.614686012268066 -11.521427154541016 0 22.26540756225586 -11.589376449584961 0
          42.42439270019531 -6.462330341339111 0 35.162376403808594 11.907835960388184 0
          -37.21989059448242 -2.723811626434326 0 -15.786581039428711 3.847468852996826 0
          21.52645492553711 48.53740692138672 0 21.888402938842773 41.97875213623047 0
          1.1330019235610962 5.855379581451416 0 0.4848700761795044 -3.522186517715454 0
          5.006392955780029 -5.475369930267334 0 34.826881408691406 10.9495210647583 0
          0.47494542598724365 47.33469009399414 0 -46.949462890625 47.63847351074219 0
          -13.907853126525879 17.696590423583984 0 -15.16276741027832 35.5583610534668 0
          -45.330928802490234 15.352418899536133 0 24.484481811523438 -36.016357421875 0
          47.886959075927734 -40.41823959350586 0 -22.082351684570312 30.05321502685547 0
          -42.424476623535156 12.908903121948242 0 -48.98755645751953 18.64610481262207 0
          2.716855525970459 -5.828840732574463 0 -30.087270736694336 -35.44265365600586 0
          -11.097884178161621 26.741294860839844 0 -46.767398834228516 -24.507678985595703 0
          1.4728190898895264 33.092674255371094 0 47.36639404296875 32.363243103027344 0
          -19.26705551147461 -43.95522689819336 0 -24.391103744506836 3.7133219242095947 0
          39.489158630371094 -15.057615280151367 0 -47.351837158203125 -33.36093521118164 0
          37.50841522216797 -29.555164337158203 0 -23.01627540588379 -0.6672456860542297 0
          -27.782258987426758 -0.5983276963233948 0 44.47507858276367 15.483307838439941 0
          26.376670837402344 -6.426987171173096 0 4.6544904708862305 -44.214046478271484 0
          -17.035110473632812 -9.060809135437012 0 40.75697708129883 31.495616912841797 0
          -24.844621658325195 -36.41085433959961 0 -1.5653270483016968 -11.568705558776855 0
          21.486488342285156 -21.279966354370117 0 11.799201011657715 31.388526916503906 0
          -18.403470993041992 -11.769627571105957 0 -14.723886489868164 31.400102615356445 0
          17.480098724365234 -12.351581573486328 0 -4.119620323181152 -19.664470672607422 0
          40.61270523071289 -1.4484148025512695 0 25.450748443603516 -38.478519439697266 0
          -10.3947172164917 37.355430603027344 0 -13.117048263549805 42.0272102355957 0
          5.090022563934326 -36.187381744384766 0 -29.759859085083008 45.13838195800781 0
          49.85080337524414 -26.747251510620117 0 -48.39971923828125 -11.435805320739746 0
          28.405479431152344 -2.910578727722168 0 4.279404163360596 -48.211524963378906 0
          39.81910705566406 -30.098834991455078 0 38.48539733886719 -5.783504962921143 0
          -34.586421966552734 -25.828001022338867 0 29.21074867248535 -2.8251559734344482 0
          -41.05915451049805 14.765231132507324 0 14.062315940856934 8.003774642944336 0
          22.07845687866211 -14.66779613494873 0 18.35490608215332 21.028873443603516 0
          -33.82394027709961 -36.54201889038086 0 -5.32542610168457 -46.40256118774414 0
          29.971529006958008 -33.11650085449219 0 32.78258514404297 -16.81201171875 0
          15.814688682556152 -8.302675247192383 0 27.807945251464844 -38.6077880859375 0