<?xml version="1.0"?>
<VTKFile type="PolyData" version="0.1" byte_order="LittleEndian" header_type="UInt32" compressor="vtkZLibDataCompressor">
  <PolyData>
    <Piece NumberOfPoints="154" NumberOfVerts="0" NumberOfLines="0" NumberOfStrips="0" NumberOfPolys="0">
      <PointData>
        <DataArray type="Int32" Name="id" format="ascii" RangeMin="0" RangeMax="153">
          0 1 2 3 4 5
          6 7 8 9 10 11
          12 13 14 15 16 17
          18 19 20 21 22 23
          24 25 26 27 28 29
          30 31 32 33 34 35
          36 37 38 39 40 41
          42 43 44 45 46 47
          48 49 50 51 52 53
          54 55 56 57 58 59
          60 61 62 63 64 65
          66 67 68 69 70 71
          72 73 74 75 76 77
          78 79 80 81 82 83
          84 85 86 87 88 89
          90 91 92 93 94 95
          96 97 98 99 100 101
          102 103 104 105 106 107
          108 109 110 111 112 113
          114 115 116 117 118 119
          120 121 122 123 124 125
          126 127 128 129 130 131
          132 133 134 135 136 137
          138 139 140 141 142 143
          144 145 146 147 148 149
          150 151 152 153
        </DataArray>
        <DataArray type="Float64" Name="director" NumberOfComponents="3" format="ascii" RangeMin="0.9999999999999999" RangeMax="1">
          -0.9932426720451543 -0.11605599695234287 0 0.25107945211681615 -0.9679664811989718 0
          -0.7304079547443427 -0.6830111416706072 0 0.3467952517234988 0.9379408581472689 0
          -0.9789547890692708 0.20407724262724516 0 0.06290390221101302 0.9980195885285155 0
          0.9385922205928589 0.34502846758284494 0 0.8571707751418658 0.5150322924270797 0
          0.9298095177123531 -0.36804111288213626 0 -0.29181716498933913 -0.9564741199936279 0
          -0.7256868956259472 0.6880250936679385 0 -0.974204511866651 -0.22566694276889607 0
          -0.32893272881648933 -0.9443533554307614 0 -0.31167137832293573 0.9501899557111102 0
          0.6401360746183189 0.7682615478938472 0 0.968850598549077 -0.24764595230105288 0
          -0.9612570697569531 -0.2756534887177669 0 -0.9639819690501372 0.2659675983014103 0
          0.9915519045262348 -0.12971052628987612 0 -0.9840438963362321 -0.17792585557868423 0
          0.6977178668916085 0.7163726531772577 0 0.4784743607720302 -0.878101523790841 0
          -0.9058490021534447 -0.42360073807491 0 0.6709713891950545 0.7414832397847295 0
          -0.8403828895546496 -0.5419931724143559 0 -0.8682460928123172 0.49613377461743624 0
          0.9716004180863023 -0.2366276137193684 0 0.7001917319899735 0.7139548574334943 0
          -0.9726127214169132 -0.23243169779095535 0 -0.5641911584050796 -0.8256441950244272 0
          0.6806607450912492 0.7325987647353943 0 -0.9965878022382652 -0.08253939925820018 0
          -0.9690333989978249 0.24692968964205608 0 0.1373025562128364 0.9905291555817127 0
          0.9902001035731575 -0.13965584443090157 0 0.17103710000502742 0.9852645890428978 0
          0.7510868905603437 0.6602033647508881 0 -0.8332391928470101 -0.552912694286958 0
          -0.9025546329842967 -0.43057535284614395 0 0.9926765153737457 0.12080288003784363 0
          -0.259748463177253 0.9656763100941512 0 0.8997986974345755 -0.4363052877229901 0
          0.12764206009719894 -0.9918202984886643 0 -0.9735000126195599 -0.22868695946580928 0
          0.7510223090761234 0.6602768292693358 0 -0.949934677706711 0.31244856871211146 0
          0.4770236111556629 -0.8788904791838463 0 -0.9979207043778483 0.06445360947238715 0
          -0.8215349605400559 -0.5701581435097185 0 -0.6270582146074171 0.7789723971318615 0
          0.7952893583200807 -0.6062300194998876 0 0.9754460090222982 -0.2202386966054572 0
          0.9904739556333204 -0.13770019321730495 0 -0.06418674559127033 0.9979379047267428 0
          -0.5311462413135389 0.8472801604773358 0 -0.9988237926138701 -0.04848743454179326 0
          -0.8065951500272766 -0.5911042750246991 0 -0.37900268662043457 0.9253955713825806 0
          -0.6710057883558731 -0.7414521103840174 0 0.7035105279637501 -0.7106848366499495 0
          -0.9727447930601578 -0.231878346497362 0 -0.29767859574654715 -0.9546661477366649 0
          -0.7317960871315919 -0.6815236509901116 0 0.9322782012188883 -0.3617421119141012 0
          0.34968966039271254 -0.9368655941032467 0 -0.9268516221654967 0.37542784991152084 0
          0.7566108373784721 -0.6538654607497227 0 -0.961604400349097 -0.27443938716819344 0
          -0.46711252957220345 0.8841978764488508 0 0.9994619724004022 -0.032798867747187384 0
          0.10920421848640863 0.9940193351564006 0 -0.09076231051760077 0.9958725837121467 0
          0.24192607648491682 0.9702946838546598 0 -0.1360572914910522 0.9907009707435028 0
          -0.24553412096993601 -0.9693879488829644 0 -0.9900026115111719 0.1410490311950415 0
          -0.9821729485131862 0.18797951805692623 0 0.44681813667883546 -0.8946248111554103 0
          -0.6727276128323656 0.7398902343813349 0 -0.2349313048260384 -0.9720119762702181 0
          -0.0773124691917996 0.9970069117651427 0 0.912913738278771 -0.40815255292828895 0
          -0.6879350459305246 -0.7257722594454593 0 -0.9508447201005443 -0.3096680775554974 0
          -0.9316986028908449 0.3632323132256374 0 0.3191109711264734 0.9477173566558328 0
          -0.9628827637920373 -0.2699199570098656 0 -0.5099506924793897 -0.8602036335890421 0
          0.7628765871682467 0.6465441305514484 0 0.5808362354522262 0.8140204343784535 0
          0.6193488835634272 -0.7851158898078272 0 -0.28547389773557724 -0.9583864845205493 0
          -0.9270033722602228 -0.3750529933465067 0 -0.21326678772988433 -0.9769940006219979 0
          0.1274998418745612 0.9918385908614172 0 0.9971762775512978 -0.07509641462105297 0
          -0.8465469893284157 0.5323140002470302 0 0.9923842752061913 0.12318055984400443 0
          -0.7240550415322012 -0.6897421959194626 0 0.8207736420130884 -0.5712535589180784 0
          -0.7682464383132255 0.640154207999169 0 0.7817137345797222 -0.6236374244458264 0
          -0.936560996504522 -0.3505046359557271 0 0.9958774120187903 0.09070931722131184 0
          -0.22707199172070827 0.9738779751981202 0 -0.9376190973272233 0.3476642465472731 0
          0.9204102820254952 0.39095384988735987 0 0.7103069933331319 -0.7038920195754788 0
          -0.4667018450756584 -0.8844147148272558 0 -0.9991554705295338 0.04108948418885162 0
          0.6055954212708567 0.7957726972796777 0 0.16110295456910748 -0.9869376059453323 0
          0.15778544447447074 -0.9874734191420008 0 0.9980625582737366 -0.06221840380533884 0
          -0.3867285499143812 -0.9221935960963511 0 -0.3202630236774547 -0.9473286629596795 0
          -0.9998059567252845 -0.01969895673985186 0 -0.9495955008128428 -0.31347788572083723 0
          -0.8852357601193521 0.46514261147084 0 0.4987217030618671 -0.8667621720489831 0
          0.9677497800518226 0.2519134041881238 0 -0.5736659072324419 -0.8190893888210122 0
          0.9870216771209689 -0.16058707573559544 0 -0.11700337083703931 0.9931315175810151 0
          0.5048466467647521 -0.8632090495646959 0 -0.5377519113382108 -0.8431031264632466 0
          -0.9715678012023449 -0.2367614995450927 0 0.8166281988988938 -0.5771640882480031 0
          -0.5500818014267439 0.835110778124141 0 -0.8208519528449038 0.5711410259390477 0
          0.7584481966831416 0.6517333296280701 0 0.6715361026222529 0.7409718367623125 0
          0.9983785580251858 0.05692323669250171 0 -0.7043249380742186 0.7098777229965371 0
          -0.9209473153989617 0.38968710815145696 0 -0.998422679494769 -0.05614403860149142 0
          0.7336096038567979 0.6795711508952335 0 0.8264224831658067 0.5630505122260897 0
          -0.6553582206907672 -0.7553182127904977 0 0.22282666578657442 0.9748580804478354 0
          0.6780562048095783 -0.7350100564748969 0 0.9620185009407709 0.27298425567726775 0
          -0.9306017245044833 0.3660333732725497 0 0.9608901460724536 0.27692982356701645 0
          0.47178338637980616 -0.8817144868584175 0 -0.8867097031172223 -0.46232661874238595 0
          0.007643262896131884 0.9999707898395336 0 -0.9970274334828947 0.07704736778444778 0
          -0.733821545170434 0.6793422847458245 0 0.4668268767351114 0.8843487248578702 0
          0.26894007770313394 -0.9631569106874707 0 0.36571244742420006 0.9307278903089784 0
          0.5652589224169547 0.8249135413047983 0 -0.18282895808592325 -0.9831447360817306 0
          <InformationKey name="L2_NORM_RANGE" location="vtkDataArray" length="2">
            <Value index="0">
              1
            </Value>
            <Value index="1">
              1
            </Value>
          </InformationKey>
        </DataArray>
        <DataArray type="Float64" Name="velocity" NumberOfComponents="3" format="ascii" RangeMin="2.98391528750295" RangeMax="65.61664053985334">
          20.472372037415383 -30.489259884928693 0 -7.778161120144524 43.605506408926914 0
          -35.778279556590725 14.318100471258902 0 -2.7267860528004704 -6.306708942777526 0
          -25.56803597993237 0.5919415230237348 0 40.69440930810454 -42.34960265147567 0
          21.390392053252754 11.720491675449018 0 -31.091580543867785 -10.301819378431787 0
          -22.233594277397 35.80993014386058 0 40.8936574712134 11.727908496204755 0
          -31.918129728714472 1.502371966558826 0 32.46317064138093 -14.067556233339687 0
          31.61170207931397 -20.66117562390716 0 -32.788218903188394 -0.7210412736466054 0
          -30.467523066969363 36.43074923190564 0 -29.58028331655805 11.627227611362315 0
          37.80505508071815 -10.753091333426255 0 44.65772551607054 -33.330173144632525 0
          47.18774005931614 6.396489460552942 0 9.836891189866492 -36.87781496106794 0
          6.677739541459459 5.438027088135769 0 -18.951003944933063 -37.93510690561732 0
          23.77908201111339 -25.727634747998636 0 32.285914726045576 -31.45240287607238 0
          -18.732306147503376 38.172541468590836 0 17.42129460906331 23.929755673071398 0
          -43.74567596165927 -36.843843838172035 0 -41.00470913383489 -49.1685554695042 0
          -4.3489588147394045 13.430332075080756 0 2.9762992276979077 -0.21305715242312573 0
          -16.420210149222868 -24.717665071237764 0 -26.63245586108499 -32.68369682188443 0
          9.59810303037343 22.68931438280859 0 37.757309281314306 20.71597266757422 0
          -26.523439665569285 -2.200425364398683 0 -48.17882370239545 24.733119867345934 0
          15.472358145094617 -42.19330576503555 0 -2.7230899171649696 49.647506705142575 0
          3.209752212846098 39.943600631846664 0 27.290092728339346 -29.624030405099575 0
          40.710862227344634 -12.518743865476708 0 34.808888796398136 -17.330075407408792 0
          -17.326333983387784 15.921061981020685 0 8.676498234140595 -45.101679767889145 0
          26.99656655139428 -0.8247828969564566 0 -1.181598492863479 -7.087342925864128 0
          -10.527228461045638 27.645380145270124 0 47.47543864880045 24.850515939083976 0
          13.45020038299144 -42.781974126121774 0 13.33632968921519 2.89206325620421 0
          -20.383234879262602 -17.467213088655853 0 13.111992425538233 49.45054225750374 0
          1.6047826830209004 22.445391370448775 0 -25.442525168919026 -16.766088433362327 0
          24.860911549332883 18.296648546241826 0 18.127137052491975 -42.11576276898946 0
          -4.106371249565804 19.81468592825003 0 -43.2115168522386 -43.085994704941484 0
          2.7042817825837204 -23.795120132132308 0 -1.6624837545658195 -36.91945356486498 0
          -40.55592314206473 -37.96183180819797 0 46.98372058379586 25.62816454897687 0
          -23.182362140209666 22.4905983535036 0 -8.42374893276238 -2.5281598168396826 0
          -44.45585735866184 11.374414308737222 0 -0.9380815156004232 40.44748670579848 0
          43.5214270198436 41.82766196839604 0 -19.617472876146607 29.010177679462174 0
          -27.377259211045168 -5.104813753149479 0 1.0108912986547693 -26.93680745999526 0
          21.18807799653547 48.4452609761332 0 15.521324819791857 -22.733301715898534 0
          -3.0984436752635744 -49.699879474370995 0 -5.357606698271908 47.09441502974741 0
          -19.533649987483585 -28.48909553641595 0 -25.241492794096537 30.645102659141713 0
          -1.3628901407151872 -9.249808436218693 0 -28.437070584076316 4.0252086974848424 0
          22.302423751473526 -21.630608392707323 0 4.286209731170565 25.592468486596516 0
          -16.80227135673981 30.176297340482108 0 35.70724318896097 -48.51082997011254 0
          38.494266527440914 9.308694076898924 0 -41.37827709570729 42.48759424258512 0
          41.371957205314274 48.07567751376408 0 40.00221093710812 44.971458396046486 0
          43.45219546574209 -49.16757290067578 0 27.77940311086799 -47.40411222574361 0
          8.787704962513757 14.978077069606684 0 -17.176354508003442 -38.89206379839693 0
          -37.572734230027905 47.39150589914381 0 3.322947059262674 16.230028184641725 0
          20.82576325094061 -43.12614201683975 0 -29.404442159877867 -6.6570323329381935 0
          -48.88074135310182 -43.07374742736768 0 -15.693819004659524 -18.776991949103287 0
          49.2742614956165 -23.093566379026992 0 35.70662412955289 -14.438908494432013 0
          24.676827977366614 34.48562696853686 0 -28.28613766609157 46.49521791482232 0
          21.219265309149932 48.266786794162286 0 25.989900495501132 -30.673962513745963 0
          -14.741048879365302 -30.369965831724773 0 33.206792723445574 45.25947670903301 0
          26.73700517552618 36.1968809297727 0 -4.433626259916984 -16.731616061562868 0
          33.82599634129042 5.430878965379037 0 -37.91344272052366 -28.781627030961573 0
          -0.8760744559602713 -9.034520229977083 0 25.951148963832622 -14.29357740625877 0
          27.17860558051683 48.15404052238152 0 34.61617221348607 33.462162550860555 0
          -13.28055184508198 -44.93740558320786 0 47.55616001461492 34.25892934866374 0
          36.946038841117556 -42.45015674570037 0 -46.76239316488481 11.393180618063838 0
          23.568028568935404 11.552780427737098 0 16.263007945057282 45.12644264060411 0
          -23.411248530157515 41.93857265065735 0 -38.160345232049345 -18.69342940760771 0
          37.21153998486223 -26.635630373860984 0 30.80584946405935 5.653176675427417 0
          44.35923105765637 0.370346282237378 0 16.64168251311186 -34.7034267378138 0
          47.322877480901255 13.376690736606477 0 -32.1350217035443 -42.58571958176201 0
          -0.5025219679409361 28.59799073613067 0 -3.5320261053794297 38.30316610148137 0
          14.736889949280638 40.32409694969634 0 -49.402638529229115 19.356180838194604 0
          8.508964450503598 -39.46387075781778 0 49.03198966734128 -27.000797471280585 0
          -16.70921662991016 18.938285128010065 0 46.14207459237997 -27.3400906744995 0
          42.424140585792586 37.62461911345025 0 -6.825547086494495 -2.911259141055119 0
          6.210247997996007 33.76154121673389 0 -35.16911208657487 13.927818279591207 0
          49.5593687100304 13.93941034113417 0 -6.0481675260535965 -47.161165000275155 0
          -41.68490984500472 3.0367185203014984 0 28.200151364646487 23.664522522360798 0
          -30.983903256438072 -23.817273645282434 0 -4.775523168997552 -3.9973115200368454 0
          17.36371431475763 -32.304692769073746 0 -31.21691646176371 -40.35131875297581 0
          -17.61253928181918 -32.96735050248542 0 -47.52659271635095 33.064298464373394 0
          -25.51716157275273 -35.79649925661745 0 -34.4558032257712 -19.698927528483058 0
          -46.64276824331557 -9.071061809886274 0 28.312364537561464 -5.662808823633235 0
          -48.25117889494449 -21.421563451189467 0 45.139670111270334 -32.86849758057289 0
          <InformationKey name="L2_NORM_RANGE" location="vtkDataArray" length="2">
            <Value index="0">
              2.9839152875
            </Value>
            <Value index="1">
              65.61664054
            </Value>
          </InformationKey>
        </DataArray>
        <DataArray type="Float64" Name="force" NumberOfComponents="3" format="ascii" RangeMin="0.49999999999999994" RangeMax="0.5">
          -0.49662133602257713 -0.05802799847617143 0 0.12553972605840807 -0.4839832405994859 0
          -0.36520397737217136 -0.3415055708353036 0 0.1733976258617494 0.46897042907363445 0
          -0.4894773945346354 0.10203862131362258 0 0.03145195110550651 0.49900979426425773 0
          0.4692961102964294 0.17251423379142247 0 0.4285853875709329 0.25751614621353985 0
          0.46490475885617655 -0.18402055644106813 0 -0.14590858249466956 -0.47823705999681393 0
          -0.3628434478129736 0.34401254683396926 0 -0.4871022559333255 -0.11283347138444803 0
          -0.16446636440824466 -0.4721766777153807 0 -0.15583568916146787 0.4750949778555551 0
          0.32006803730915945 0.3841307739469236 0 0.4844252992745385 -0.12382297615052644 0
          -0.48062853487847657 -0.13782674435888345 0 -0.4819909845250686 0.13298379915070516 0
          0.4957759522631174 -0.06485526314493806 0 -0.49202194816811606 -0.08896292778934212 0
          0.34885893344580426 0.35818632658862887 0 0.2392371803860151 -0.4390507618954205 0
          -0.45292450107672233 -0.211800369037455 0 0.33548569459752725 0.37074161989236476 0
          -0.4201914447773248 -0.2709965862071779 0 -0.4341230464061586 0.24806688730871812 0
          0.48580020904315113 -0.1183138068596842 0 0.35009586599498677 0.35697742871674715 0
          -0.4863063607084566 -0.11621584889547767 0 -0.2820955792025398 -0.4128220975122136 0
          0.3403303725456246 0.36629938236769716 0 -0.4982939011191326 -0.04126969962910009 0
          -0.48451669949891246 0.12346484482102804 0 0.0686512781064182 0.49526457779085636 0
          0.49510005178657873 -0.06982792221545078 0 0.08551855000251371 0.4926322945214489 0
          0.37554344528017186 0.33010168237544407 0 -0.41661959642350505 -0.276456347143479 0
          -0.45127731649214836 -0.21528767642307198 0 0.49633825768687284 0.060401440018921816 0
          -0.1298742315886265 0.4828381550470756 0 0.44989934871728776 -0.21815264386149505 0
          0.06382103004859947 -0.49591014924433213 0 -0.48675000630977994 -0.11434347973290464 0
          0.3755111545380617 0.3301384146346679 0 -0.4749673388533555 0.15622428435605573 0
          0.23851180557783144 -0.43944523959192316 0 -0.49896035218892415 0.032226804736193576 0
          -0.41076748027002796 -0.28507907175485925 0 -0.31352910730370853 0.38948619856593075 0
          0.39764467916004037 -0.3031150097499438 0 0.4877230045111491 -0.1101193483027286 0
          0.4952369778166602 -0.06885009660865248 0 -0.032093372795635164 0.4989689523633714 0
          -0.26557312065676947 0.4236400802386679 0 -0.49941189630693505 -0.02424371727089663 0
          -0.4032975750136383 -0.29555213751234954 0 -0.18950134331021729 0.4626977856912903 0
          -0.33550289417793655 -0.3707260551920087 0 0.35175526398187507 -0.35534241832497476 0
          -0.4863723965300789 -0.115939173248681 0 -0.14883929787327357 -0.47733307386833246 0
          -0.36589804356579597 -0.3407618254950558 0 0.46613910060944413 -0.1808710559570506 0
          0.17484483019635627 -0.46843279705162333 0 -0.46342581108274833 0.18771392495576042 0
          0.37830541868923606 -0.32693273037486137 0 -0.4808022001745485 -0.13721969358409672 0
          -0.23355626478610172 0.4420989382244254 0 0.4997309862002011 -0.016399433873593692 0
          0.054602109243204314 0.4970096675782003 0 -0.04538115525880038 0.49793629185607335 0
          0.12096303824245841 0.4851473419273299 0 -0.0680286457455261 0.4953504853717514 0
          -0.12276706048496801 -0.4846939744414822 0 -0.49500130575558593 0.07052451559752075 0
          -0.4910864742565931 0.09398975902846311 0 0.22340906833941773 -0.44731240557770513 0
          -0.3363638064161828 0.36994511719066747 0 -0.1174656524130192 -0.48600598813510903 0
          -0.0386562345958998 0.49850345588257133 0 0.4564568691393855 -0.20407627646414447 0
          -0.3439675229652623 -0.36288612972272966 0 -0.47542236005027216 -0.1548340387777487 0
          -0.46584930144542247 0.1816161566128187 0 0.1595554855632367 0.4738586783279164 0
          -0.48144138189601865 -0.1349599785049328 0 -0.25497534623969487 -0.43010181679452103 0
          0.38143829358412334 0.3232720652757242 0 0.2904181177261131 0.40701021718922675 0
          0.3096744417817136 -0.3925579449039136 0 -0.14273694886778862 -0.47919324226027465 0
          -0.4635016861301114 -0.18752649667325336 0 -0.10663339386494217 -0.48849700031099896 0
          0.0637499209372806 0.4959192954307086 0 0.4985881387756489 -0.03754820731052649 0
          -0.4232734946642078 0.2661570001235151 0 0.49619213760309566 0.061590279922002215 0
          -0.3620275207661006 -0.3448710979597313 0 0.4103868210065442 -0.2856267794590392 0
          -0.38412321915661274 0.3200771039995845 0 0.3908568672898611 -0.3118187122229132 0
          -0.468280498252261 -0.17525231797786356 0 0.49793870600939516 0.04535465861065592 0
          -0.11353599586035414 0.4869389875990601 0 -0.46880954866361163 0.17383212327363656 0
          0.4602051410127476 0.19547692494367994 0 0.3551534966665659 -0.3519460097877394 0
          -0.2333509225378292 -0.4422073574136279 0 -0.4995777352647669 0.02054474209442581 0
          0.3027977106354284 0.39788634863983885 0 0.08055147728455374 -0.49346880297266615 0
          0.07889272223723537 -0.4937367095710004 0 0.4990312791368683 -0.03110920190266942 0
          -0.1933642749571906 -0.46109679804817555 0 -0.16013151183872734 -0.4736643314798398 0
          -0.49990297836264225 -0.00984947836992593 0 -0.4747977504064214 -0.15673894286041862 0
          -0.44261788005967606 0.23257130573542 0 0.24936085153093354 -0.43338108602449155 0
          0.4838748900259113 0.1259567020940619 0 -0.28683295361622096 -0.4095446944105061 0
          0.49351083856048444 -0.08029353786779772 0 -0.058501685418519654 0.49656575879050757 0
          0.25242332338237605 -0.43160452478234795 0 -0.2688759556691054 -0.4215515632316233 0
          -0.48578390060117244 -0.11838074977254635 0 0.4083140994494469 -0.28858204412400157 0
          -0.27504090071337195 0.4175553890620705 0 -0.4104259764224519 0.28557051296952385 0
          0.3792240983415708 0.32586666481403503 0 0.33576805131112647 0.37048591838115624 0
          0.4991892790125929 0.028461618346250855 0 -0.3521624690371093 0.35493886149826853 0
          -0.46047365769948084 0.19484355407572848 0 -0.4992113397473845 -0.02807201930074571 0
          0.3668048019283989 0.33978557544761673 0 0.41321124158290334 0.28152525611304485 0
          -0.3276791103453836 -0.37765910639524886 0 0.11141333289328721 0.4874290402239177 0
          0.33902810240478914 -0.36750502823744846 0 0.48100925047038545 0.13649212783863388 0
          -0.46530086225224165 0.18301668663627485 0 0.4804450730362268 0.13846491178350823 0
          0.23589169318990308 -0.44085724342920873 0 -0.44335485155861115 -0.23116330937119298 0
          0.003821631448065942 0.4999853949197668 0 -0.49851371674144734 0.03852368389222389 0
          -0.366910772585217 0.33967114237291224 0 0.2334134383675557 0.4421743624289351 0
          0.13447003885156697 -0.48157845534373533 0 0.18285622371210003 0.4653639451544892 0
          0.2826294612084774 0.41245677065239916 0 -0.09141447904296163 -0.4915723680408653 0
          <InformationKey name="L2_NORM_RANGE" location="vtkDataArray" length="2">
            <Value index="0">
              0.5
            </Value>
            <Value index="1">
              0.5
            </Value>
          </InformationKey>
        </DataArray>
        <DataArray type="Float64" Name="radius" format="ascii" RangeMin="1" RangeMax="1">
          1 1 1 1 1 1
          1 1 1 1 1 1
          1 1 1 1 1 1
          1 1 1 1 1 1
          1 1 1 1 1 1
          1 1 1 1 1 1
          1 1 1 1 1 1
          1 1 1 1 1 1
          1 1 1 1 1 1
          1 1 1 1 1 1
          1 1 1 1 1 1
          1 1 1 1 1 1
          1 1 1 1 1 1
          1 1 1 1 1 1
          1 1 1 1 1 1
          1 1 1 1 1 1
          1 1 1 1 1 1
          1 1 1 1 1 1
          1 1 1 1 1 1
          1 1 1 1 1 1
          1 1 1 1 1 1
          1 1 1 1 1 1
          1 1 1 1 1 1
          1 1 1 1 1 1
          1 1 1 1 1 1
          1 1 1 1
        </DataArray>
      </PointData>
      <CellData>
      </CellData>
      <Points>
        <DataArray type="Float32" Name="Points" NumberOfComponents="3" format="ascii" RangeMin="2.816635307031164" RangeMax="67.18526209084247">
          -37.841041564941406 33.934906005859375 0 46.92167282104492 -28.004695892333984 0
          -19.672876358032227 4.257253646850586 0 -31.294958114624023 49.83666229248047 0
          48.74399185180664 46.23724365234375 0 22.543428421020508 48.601043701171875 0
          -39.7066764831543 29.503103256225586 0 -19.682703018188477 -50.34561538696289 0
          -38.82118606567383 13.245701789855957 0 37.296661376953125 0.7141797542572021 0
          29.9921817779541 -13.590314865112305 0 -28.690492630004883 17.893207550048828 0
          -10.712383270263672 23.857694625854492 0 -3.322108268737793 -7.488001823425293 0
          -32.4058952331543 -19.78959083557129 0 28.91849136352539 -18.839948654174805 0
          37.280128479003906 -35.409423828125 0 48.81343078613281 31.1937313079834 0
          -37.75947570800781 26.161151885986328 0 -1.3115289211273193 15.649405479431152 0
          -37.9985237121582 -28.43907928466797 0 -45.10300827026367 -46.19588088989258 0
          -8.900067329406738 -4.201519012451172 0 -1.2727209329605103 29.8499698638916 0
          41.8350715637207 30.48592185974121 0 20.994094848632812 -49.742332458496094 0
          20.519153594970703 14.654644012451172 0 -4.214113712310791 27.06822395324707 0
          7.679646968841553 37.901878356933594 0 30.840381622314453 -47.90644073486328 0
          33.13143539428711 32.74638748168945 0 43.6605110168457 -8.539407730102539 0
          -7.839582920074463 7.7515106201171875 0 -34.130069732666016 26.832033157348633 0
          -26.0069637298584 31.56992530822754 0 49.647857666015625 -17.553354263305664 0
          -20.10044288635254 -49.17117691040039 0 -29.008983612060547 40.74909591674805 0
          34.60143280029297 45.86467742919922 0 27.591102600097656 49.370399475097656 0
          -43.36448669433594 29.5543270111084 0 9.60228157043457 23.794536590576172 0
          19.115053176879883 18.295318603515625 0 -10.446686744689941 5.872340679168701 0
          -29.428138732910156 2.2982981204986572 0 -9.592241287231445 -14.738753318786621 0
          9.270042419433594 -13.522468566894531 0 46.539005279541016 -34.87126922607422 0
          -10.622011184692383 -11.53870964050293 0 22.40669822692871 -11.742659568786621 0
          42.289817810058594 -6.502184867858887 0 35.2610969543457 11.913790702819824 0
          -37.21404266357422 -2.705636739730835 0 -15.753888130187988 3.8265888690948486 0
          21.4987850189209 48.712913513183594 0 21.988540649414062 41.72807693481445 0
          1.0815261602401733 5.930688858032227 0 0.4806044399738312 -3.4588403701782227 0
          4.865494728088379 -5.567397117614746 0 34.988704681396484 10.830948829650879 0
          0.5819916725158691 47.2955436706543 0 -46.92610549926758 47.58128356933594 0
          -14.006953239440918 17.61945343017578 0 -15.061391830444336 35.60084915161133 0
          -45.27858352661133 15.260862350463867 0 24.58606719970703 -36.144840240478516 0
          48.051422119140625 -40.518531799316406 0 -22.05914306640625 30.115768432617188 0
          -42.431217193603516 13.044487953186035 0 -48.72660446166992 18.57032012939453 0
          2.807796001434326 -5.916955947875977 0 -30.018779754638672 -35.36104202270508 0
          -11.339813232421875 26.72977638244629 0 -46.616756439208984 -24.443077087402344 0
          1.1975269317626953 33.155189514160156 0 47.33724594116211 32.271636962890625 0
          -19.489389419555664 -44.04138946533203 0 -24.450834274291992 3.5773823261260986 0
          39.522308349609375 -15.139482498168945 0 -47.19583511352539 -33.424224853515625 0
          37.5702018737793 -29.52841567993164 0 -23.268695831298828 -0.535412073135376 0
          -27.737443923950195 -0.6027281880378723 0 44.43153381347656 15.615665435791016 0
          26.496639251708984 -6.36793851852417 0 4.854935169219971 -44.394134521484375 0
          -16.97617530822754 -8.883399963378906 0 40.782466888427734 31.36275291442871 0
          -24.7813663482666 -36.27392578125 0 -1.6198058128356934 -11.593358039855957 0
          21.601688385009766 -21.406352996826172 0 12.010013580322266 31.401426315307617 0
          -18.30866241455078 -11.61978816986084 0 -14.709299087524414 31.44838523864746 0
          17.6046142578125 -12.161136627197266 0 -4.133582592010498 -19.599353790283203 0
          40.5565299987793 -1.3658868074417114 0 25.692218780517578 -38.440834045410156 0
          -10.24511432647705 37.23247146606445 0 -13.163949966430664 41.940494537353516 0
          5.096902370452881 -36.122520446777344 0 -29.701265335083008 45.0372200012207 0
          49.781959533691406 -26.840972900390625 0 -48.410621643066406 -11.44701862335205 0
          28.292179107666016 -2.8689472675323486 0 4.324704647064209 -48.44627380371094 0
          39.763797760009766 -30.205074310302734 0 38.596065521240234 -5.65850305557251 0
          -34.58658218383789 -25.726160049438477 0 29.145231246948242 -2.7228007316589355 0
          -40.90810775756836 14.808091163635254 0 13.969748497009277 7.900445461273193 0
          21.98138999938965 -14.811113357543945 0 18.458709716796875 20.91071319580078 0
          -33.91170120239258 -36.46848678588867 0 -5.393517017364502 -46.44110107421875 0
          29.98714256286621 -33.08810806274414 0 32.76145935058594 -16.866151809692383 0
          15.937607765197754 -8.28676700592041 0 27.928455352783203 -38.66866683959961 0