<?xml version="1.0"?>
<VTKFile type="PolyData" version="0.1" byte_order="LittleEndian" header_type="UInt32" compressor="vtkZLibDataCompressor">
  <PolyData>
    <Piece NumberOfPoints="154" NumberOfVerts="0" NumberOfLines="0" NumberOfStrips="0" NumberOfPolys="0">
      <PointData>
        <DataArray type="Int32" Name="id" format="ascii" RangeMin="0" RangeMax="153">
          0 1 2 3 4 5
          6 7 8 9 10 11
          12 13 14 15 16 17
          18 19 20 21 22 23
          24 25 26 27 28 29
          30 31 32 33 34 35
          36 37 38 39 40 41
          42 43 44 45 46 47
          48 49 50 51 52 53
          54 55 56 57 58 59
          60 61 62 63 64 65
          66 67 68 69 70 71
          72 73 74 75 76 77
          78 79 80 81 82 83
          84 85 86 87 88 89
          90 91 92 93 94 95
          96 97 98 99 100 101
          102 103 104 105 106 107
          108 109 110 111 112 113
          114 115 116 117 118 119
          120 121 122 123 124 125
          126 127 128 129 130 131
          132 133 134 135 136 137
          138 139 140 141 142 143
          144 145 146 147 148 149
          150 151 152 153
        </DataArray>
        <DataArray type="Float64" Name="director" NumberOfComponents="3" format="ascii" RangeMin="0.9999999999999999" RangeMax="1">
          -0.9996003372195557 -0.028269521229597326 0 0.23567693482472007 -0.9718314578112939 0
          -0.7500444030800517 -0.6613874759989705 0 0.44991233988430906 0.8930727217980773 0
          -0.9472154701162692 0.32059764997955803 0 0.11640568505761746 0.9932017501425714 0
          0.9446331120045001 0.3281284561032366 0 0.8948082927072828 0.4464505787903939 0
          0.9549253641281135 -0.2968460020697431 0 -0.37494772332107695 -0.9270459561296522 0
          -0.6729328283660856 0.7397035950346736 0 -0.9674414595209542 -0.25309488813479825 0
          -0.4420044716117558 -0.8970128466611905 0 -0.2913572813322138 0.9566143081800006 0
          0.6558924448092963 0.7548543573710654 0 0.9454430438085668 -0.3257874320995094 0
          -0.9577570326682352 -0.2875786264216051 0 -0.9628578279270316 0.2700088946676367 0
          0.9960724801568974 -0.08854159629285686 0 -0.9922146506244184 -0.12453950010443844 0
          0.637003999038297 0.7708604965940449 0 0.5066921968193673 -0.8621270310588595 0
          -0.9219855476116173 -0.387224289004843 0 0.734557434822622 0.6785465164208047 0
          -0.9059601958595984 -0.4233628745155131 0 -0.818507680730132 0.5744955844789237 0
          0.9781291068062611 -0.20799867888615517 0 0.6919837276973552 0.7219130976800966 0
          -0.9706548112316151 -0.24047710376024908 0 -0.5374070057965195 -0.8433230164775651 0
          0.6805834666462278 0.7326705568861103 0 -0.9979786635749875 -0.06354987843483037 0
          -0.9740628928250784 0.2262774421395996 0 0.05962610043634385 0.9982207812637217 0
          0.9828261908477732 -0.184533678724661 0 0.17823343229355776 0.9839882334727675 0
          0.7564849638735444 0.6540110850996658 0 -0.8123479764599609 -0.5831730147575476 0
          -0.9142894244145037 -0.4050615365642555 0 0.9796743192392566 0.20059468642787884 0
          -0.21610241654301826 0.9763707008940138 0 0.881733257939399 -0.471748303487753 0
          0.05827161951410859 -0.9983007654806255 0 -0.9720138656135575 -0.23492348766138507 0
          0.7865596457025834 0.6175143105647241 0 -0.9016109075138199 0.4325479990152609 0
          0.5126156197561316 -0.8586182075765906 0 -0.9991952501363541 -0.04011049868735894 0
          -0.8205541036269258 -0.5715688611366196 0 -0.5511386661697197 0.8344136687834531 0
          0.814984471530402 -0.5794827962625908 0 0.9653355379927515 -0.2610120669399119 0
          0.9838926200328474 -0.17876048848920414 0 0.0013876335624221593 0.9999990372360847 0
          -0.5744802929093658 0.818518413390175 0 -0.9999983079630332 -0.0018395844831329445 0
          -0.7961043952307838 -0.6051593111687433 0 -0.4378233274948607 0.8990610290193475 0
          -0.6145008196163667 -0.7889161822974691 0 0.6776936972495704 -0.7353443089520769 0
          -0.9645159717576057 -0.2640245068634378 0 -0.17888456119056625 -0.9838700695557613 0
          -0.6899152504855471 -0.7238901485359949 0 0.9138503356166182 -0.4060511840807686 0
          0.33221584434122914 -0.9432033888661788 0 -0.9475678311182567 0.3195546986508615 0
          0.7174785421898161 -0.6965806066042725 0 -0.9551771758716084 -0.29603473224258386 0
          -0.440663883203628 0.8976721796067311 0 0.9977297171590563 -0.0673454638242952 0
          0.14683434178348675 0.9891610971287792 0 -0.16908692299142164 0.9856011426907403 0
          0.2067915310258008 0.9783850278372034 0 -0.2438446663306874 0.9698143011433042 0
          -0.28279218068299106 -0.9591812042281471 0 -0.9792400009753323 0.20270426855355392 0
          -0.9712520278801168 0.23805356191151794 0 0.3755351056757454 -0.926808170230014 0
          -0.6489317386364121 0.7608466327653184 0 -0.18673865148620986 -0.9824096274167471 0
          -0.16199601648221448 0.9867914119224458 0 0.9316377941110404 -0.3633882504758714 0
          -0.722166816139102 -0.6917189383467193 0 -0.9683805013344712 -0.24947786401842997 0
          -0.9297263104911955 0.3682512560473205 0 0.28005593491347763 0.9599836838820428 0
          -0.9663131962866863 -0.25736900878351304 0 -0.5154364308592694 -0.8569278182805466 0
          0.7815163968254701 0.6238847020827921 0 0.6195245347467436 0.7849772932046066 0
          0.5992011683008723 -0.8005985010645909 0 -0.2537963486638816 -0.9672576768394663 0
          -0.8823781463861433 -0.4705409724775876 0 -0.23598713500868168 -0.9717561793528221 0
          0.12247001445503691 0.9924722139986505 0 0.9965087913382156 -0.08348789604277165 0
          -0.8029074428722913 0.5961037142815654 0 0.9979022854920649 0.06473815420378683 0
          -0.7320476014976285 -0.6812534837647213 0 0.7667264433566214 -0.6419739566818156 0
          -0.763632811646999 0.645650779428089 0 0.7851374064387395 -0.6193216070917028 0
          -0.9412180620052455 -0.33779958519081976 0 0.9917088861059922 0.1285048062074419 0
          -0.20355993012113385 0.9790624877141801 0 -0.968787478411016 0.24789276244784794 0
          0.9415122000869346 0.3369788970951445 0 0.7197063555224787 -0.6942785909276991 0
          -0.41672234916357104 -0.9090338187920155 0 -0.999611824469502 -0.027860372947136707 0
          0.5138754656591079 0.857864794588072 0 0.09980834177383371 -0.9950066808380522 0
          0.22945572015717638 -0.9733191010594375 0 0.9816131233560836 -0.1908813140543466 0
          -0.3285931981096 -0.9444715507394096 0 -0.3534496258374417 -0.9354535595075645 0
          -0.9920427670574778 -0.1259013436343822 0 -0.938434415045796 -0.345457448403786 0
          -0.8633438340269181 0.5046161157233302 0 0.43669493992127423 -0.8996096539317232 0
          0.9627675877260843 0.27033048667158616 0 -0.5278617409465143 -0.8493303140974747 0
          0.9876671218819902 -0.15656837596828344 0 -0.11500614939027251 0.9933647797271767 0
          0.5043035173254801 -0.8635264688549791 0 -0.520308573714352 -0.8539783300057073 0
          -0.9773629634051595 -0.2115694632121678 0 0.7410378221938424 -0.6714632872154719 0
          -0.578327790964558 0.8158044901801255 0 -0.8844825854686732 0.46657320540580904 0
          0.8035640434883302 0.5952183028206416 0 0.7408947078684746 0.6716211966968342 0
          0.9942283064405715 0.10728501606614553 0 -0.6473611612142901 0.7621833945654326 0
          -0.8718088520952412 0.4898462262877789 0 -0.9994617300337744 0.03280625242076121 0
          0.6518735400908947 0.758327691522184 0 0.8641047083990129 0.5033120830286681 0
          -0.6315802230249742 -0.7753105325504897 0 0.13185366059756354 0.9912691925945356 0
          0.6825656583631219 -0.7308242757484988 0 0.9278560722879043 0.3729384789995036 0
          -0.9558533751640232 0.2938440490932988 0 0.9641476015687271 0.2653665434625678 0
          0.45624246077682773 -0.8898555034298011 0 -0.8693622903407127 -0.49417528077955336 0
          0.06712568382821993 0.9977445277076662 0 -0.999875889478495 0.01575454345858424 0
          -0.7177300246405669 0.6963214859024898 0 0.4151391590855602 0.9097579230727996 0
          0.3067899514994508 -0.9517772458190858 0 0.28195992333406855 0.9594261835250517 0
          0.5715674683041024 0.8205550738228597 0 -0.192222126048234 -0.9813514427856602 0
          <InformationKey name="L2_NORM_RANGE" location="vtkDataArray" length="2">
            <Value index="0">
              1
            </Value>
            <Value index="1">
              1
            </Value>
          </InformationKey>
        </DataArray>
        <DataArray type="Float64" Name="velocity" NumberOfComponents="3" format="ascii" RangeMin="2.98391528750295" RangeMax="65.61664053985334">
          20.472372037415383 -30.489259884928693 0 -7.778161120144524 43.605506408926914 0
          -35.778279556590725 14.318100471258902 0 -2.7267860528004704 -6.306708942777526 0
          -25.56803597993237 0.5919415230237348 0 40.69440930810454 -42.34960265147567 0
          21.390392053252754 11.720491675449018 0 -31.091580543867785 -10.301819378431787 0
          -22.233594277397 35.80993014386058 0 40.8936574712134 11.727908496204755 0
          -31.918129728714472 1.502371966558826 0 32.46317064138093 -14.067556233339687 0
          31.61170207931397 -20.66117562390716 0 -32.788218903188394 -0.7210412736466054 0
          -30.467523066969363 36.43074923190564 0 -29.58028331655805 11.627227611362315 0
          37.80505508071815 -10.753091333426255 0 44.65772551607054 -33.330173144632525 0
          47.18774005931614 6.396489460552942 0 9.836891189866492 -36.87781496106794 0
          6.677739541459459 5.438027088135769 0 -18.951003944933063 -37.93510690561732 0
          23.77908201111339 -25.727634747998636 0 32.285914726045576 -31.45240287607238 0
          -18.732306147503376 38.172541468590836 0 17.42129460906331 23.929755673071398 0
          -43.74567596165927 -36.843843838172035 0 -41.00470913383489 -49.1685554695042 0
          -4.3489588147394045 13.430332075080756 0 2.9762992276979077 -0.21305715242312573 0
          -16.420210149222868 -24.717665071237764 0 -26.63245586108499 -32.68369682188443 0
          9.59810303037343 22.68931438280859 0 37.757309281314306 20.71597266757422 0
          -26.523439665569285 -2.200425364398683 0 -48.17882370239545 24.733119867345934 0
          15.472358145094617 -42.19330576503555 0 -2.7230899171649696 49.647506705142575 0
          3.209752212846098 39.943600631846664 0 27.290092728339346 -29.624030405099575 0
          40.710862227344634 -12.518743865476708 0 34.808888796398136 -17.330075407408792 0
          -17.326333983387784 15.921061981020685 0 8.676498234140595 -45.101679767889145 0
          26.99656655139428 -0.8247828969564566 0 -1.181598492863479 -7.087342925864128 0
          -10.527228461045638 27.645380145270124 0 47.47543864880045 24.850515939083976 0
          13.45020038299144 -42.781974126121774 0 13.33632968921519 2.89206325620421 0
          -20.383234879262602 -17.467213088655853 0 13.111992425538233 49.45054225750374 0
          1.6047826830209004 22.445391370448775 0 -25.442525168919026 -16.766088433362327 0
          24.860911549332883 18.296648546241826 0 18.127137052491975 -42.11576276898946 0
          -4.106371249565804 19.81468592825003 0 -43.2115168522386 -43.085994704941484 0
          2.7042817825837204 -23.795120132132308 0 -1.6624837545658195 -36.91945356486498 0
          -40.55592314206473 -37.96183180819797 0 46.98372058379586 25.62816454897687 0
          -23.182362140209666 22.4905983535036 0 -8.42374893276238 -2.5281598168396826 0
          -44.45585735866184 11.374414308737222 0 -0.9380815156004232 40.44748670579848 0
          43.5214270198436 41.82766196839604 0 -19.617472876146607 29.010177679462174 0
          -27.377259211045168 -5.104813753149479 0 1.0108912986547693 -26.93680745999526 0
          21.18807799653547 48.4452609761332 0 15.521324819791857 -22.733301715898534 0
          -3.0984436752635744 -49.699879474370995 0 -5.357606698271908 47.09441502974741 0
          -19.533649987483585 -28.48909553641595 0 -25.241492794096537 30.645102659141713 0
          -1.3628901407151872 -9.249808436218693 0 -28.437070584076316 4.0252086974848424 0
          22.302423751473526 -21.630608392707323 0 4.286209731170565 25.592468486596516 0
          -16.80227135673981 30.176297340482108 0 35.70724318896097 -48.51082997011254 0
          38.494266527440914 9.308694076898924 0 -41.37827709570729 42.48759424258512 0
          41.371957205314274 48.07567751376408 0 40.00221093710812 44.971458396046486 0
          43.45219546574209 -49.16757290067578 0 27.77940311086799 -47.40411222574361 0
          8.787704962513757 14.978077069606684 0 -17.176354508003442 -38.89206379839693 0
          -37.572734230027905 47.39150589914381 0 3.322947059262674 16.230028184641725 0
          20.82576325094061 -43.12614201683975 0 -29.404442159877867 -6.6570323329381935 0
          -48.88074135310182 -43.07374742736768 0 -15.693819004659524 -18.776991949103287 0
          49.2742614956165 -23.093566379026992 0 35.70662412955289 -14.438908494432013 0
          24.676827977366614 34.48562696853686 0 -28.28613766609157 46.49521791482232 0
          21.219265309149932 48.266786794162286 0 25.989900495501132 -30.673962513745963 0
          -14.741048879365302 -30.369965831724773 0 33.206792723445574 45.25947670903301 0
          26.73700517552618 36.1968809297727 0 -4.433626259916984 -16.731616061562868 0
          33.82599634129042 5.430878965379037 0 -37.91344272052366 -28.781627030961573 0
          -0.8760744559602713 -9.034520229977083 0 25.951148963832622 -14.29357740625877 0
          27.17860558051683 48.15404052238152 0 34.61617221348607 33.462162550860555 0
          -13.28055184508198 -44.93740558320786 0 47.55616001461492 34.25892934866374 0
          36.946038841117556 -42.45015674570037 0 -46.76239316488481 11.393180618063838 0
          23.568028568935404 11.552780427737098 0 16.263007945057282 45.12644264060411 0
          -23.411248530157515 41.93857265065735 0 -38.160345232049345 -18.69342940760771 0
          37.21153998486223 -26.635630373860984 0 30.80584946405935 5.653176675427417 0
          44.35923105765637 0.370346282237378 0 16.64168251311186 -34.7034267378138 0
          47.322877480901255 13.376690736606477 0 -32.1350217035443 -42.58571958176201 0
          -0.5025219679409361 28.59799073613067 0 -3.5320261053794297 38.30316610148137 0
          14.736889949280638 40.32409694969634 0 -49.402638529229115 19.356180838194604 0
          8.508964450503598 -39.46387075781778 0 49.03198966734128 -27.000797471280585 0
          -16.70921662991016 18.938285128010065 0 46.14207459237997 -27.3400906744995 0
          42.424140585792586 37.62461911345025 0 -6.825547086494495 -2.911259141055119 0
          6.210247997996007 33.76154121673389 0 -35.16911208657487 13.927818279591207 0
          49.5593687100304 13.93941034113417 0 -6.0481675260535965 -47.161165000275155 0
          -41.68490984500472 3.0367185203014984 0 28.200151364646487 23.664522522360798 0
          -30.983903256438072 -23.817273645282434 0 -4.775523168997552 -3.9973115200368454 0
          17.36371431475763 -32.304692769073746 0 -31.21691646176371 -40.35131875297581 0
          -17.61253928181918 -32.96735050248542 0 -47.52659271635095 33.064298464373394 0
          -25.51716157275273 -35.79649925661745 0 -34.4558032257712 -19.698927528483058 0
          -46.64276824331557 -9.071061809886274 0 28.312364537561464 -5.662808823633235 0
          -48.25117889494449 -21.421563451189467 0 45.139670111270334 -32.86849758057289 0
          <InformationKey name="L2_NORM_RANGE" location="vtkDataArray" length="2">
            <Value index="0">
              2.9839152875
            </Value>
            <Value index="1">
              65.61664054
            </Value>
          </InformationKey>
        </DataArray>
        <DataArray type="Float64" Name="force" NumberOfComponents="3" format="ascii" RangeMin="0.49999999999999994" RangeMax="0.5">
          -0.49980016860977783 -0.014134760614798663 0 0.11783846741236004 -0.48591572890564694 0
          -0.37502220154002586 -0.33069373799948526 0 0.22495616994215453 0.44653636089903864 0
          -0.4736077350581346 0.16029882498977902 0 0.05820284252880873 0.4966008750712857 0
          0.47231655600225003 0.1640642280516183 0 0.4474041463536414 0.22322528939519695 0
          0.47746268206405673 -0.14842300103487155 0 -0.18747386166053848 -0.4635229780648261 0
          -0.3364664141830428 0.3698517975173368 0 -0.4837207297604771 -0.12654744406739912 0
          -0.2210022358058779 -0.44850642333059526 0 -0.1456786406661069 0.4783071540900003 0
          0.32794622240464816 0.3774271786855327 0 0.4727215219042834 -0.1628937160497547 0
          -0.4788785163341176 -0.14378931321080254 0 -0.4814289139635158 0.13500444733381836 0
          0.4980362400784487 -0.04427079814642843 0 -0.4961073253122092 -0.06226975005221922 0
          0.3185019995191485 0.38543024829702244 0 0.25334609840968364 -0.43106351552942973 0
          -0.46099277380580866 -0.1936121445024215 0 0.367278717411311 0.33927325821040233 0
          -0.4529800979297992 -0.21168143725775654 0 -0.409253840365066 0.28724779223946184 0
          0.48906455340313054 -0.10399933944307758 0 0.3459918638486776 0.3609565488400483 0
          -0.48532740561580756 -0.12023855188012454 0 -0.2687035028982597 -0.42166150823878257 0
          0.3402917333231139 0.36633527844305513 0 -0.4989893317874938 -0.031774939217415185 0
          -0.4870314464125392 0.1131387210697998 0 0.029813050218171926 0.49911039063186086 0
          0.4914130954238866 -0.0922668393623305 0 0.08911671614677888 0.49199411673638377 0
          0.3782424819367722 0.3270055425498329 0 -0.40617398822998046 -0.2915865073787738 0
          -0.45714471220725184 -0.20253076828212774 0 0.4898371596196283 0.10029734321393942 0
          -0.10805120827150913 0.4881853504470069 0 0.4408666289696995 -0.2358741517438765 0
          0.029135809757054296 -0.49915038274031276 0 -0.48600693280677876 -0.11746174383069254 0
          0.3932798228512917 0.30875715528236203 0 -0.45080545375690995 0.21627399950763046 0
          0.2563078098780658 -0.4293091037882953 0 -0.49959762506817706 -0.02005524934367947 0
          -0.4102770518134629 -0.2857844305683098 0 -0.27556933308485987 0.41720683439172657 0
          0.407492235765201 -0.2897413981312954 0 0.48266776899637576 -0.13050603346995596 0
          0.4919463100164237 -0.08938024424460207 0 0.0006938167812110796 0.49999951861804237 0
          -0.2872401464546829 0.4092592066950875 0 -0.4999991539815166 -0.0009197922415664722 0
          -0.3980521976153919 -0.30257965558437167 0 -0.21891166374743035 0.44953051450967374 0
          -0.30725040980818336 -0.39445809114873454 0 0.3388468486247852 -0.36767215447603846 0
          -0.48225798587880286 -0.1320122534317189 0 -0.08944228059528313 -0.49193503477788064 0
          -0.34495762524277357 -0.36194507426799744 0 0.4569251678083091 -0.2030255920403843 0
          0.16610792217061457 -0.4716016944330894 0 -0.47378391555912835 0.15977734932543075 0
          0.35873927109490805 -0.34829030330213623 0 -0.4775885879358042 -0.14801736612129193 0
          -0.220331941601814 0.44883608980336553 0 0.49886485857952817 -0.0336727319121476 0
          0.07341717089174338 0.4945805485643896 0 -0.08454346149571082 0.49280057134537014 0
          0.1033957655129004 0.4891925139186017 0 -0.1219223331653437 0.4849071505716521 0
          -0.14139609034149553 -0.47959060211407356 0 -0.48962000048766613 0.10135213427677696 0
          -0.4856260139400584 0.11902678095575897 0 0.1877675528378727 -0.463404085115007 0
          -0.32446586931820603 0.3804233163826592 0 -0.09336932574310493 -0.49120481370837354 0
          -0.08099800824110724 0.4933957059612229 0 0.4658188970555202 -0.1816941252379357 0
          -0.361083408069551 -0.34585946917335963 0 -0.4841902506672356 -0.12473893200921499 0
          -0.46486315524559774 0.18412562802366025 0 0.14002796745673882 0.4799918419410214 0
          -0.48315659814334316 -0.12868450439175652 0 -0.2577182154296347 -0.4284639091402733 0
          0.39075819841273507 0.31194235104139606 0 0.3097622673733718 0.3924886466023033 0
          0.29960058415043617 -0.4002992505322954 0 -0.1268981743319408 -0.48362883841973314 0
          -0.44118907319307166 -0.2352704862387938 0 -0.11799356750434084 -0.48587808967641105 0
          0.061235007227518456 0.49623610699932524 0 0.4982543956691078 -0.04174394802138583 0
          -0.40145372143614566 0.2980518571407827 0 0.49895114274603247 0.03236907710189341 0
          -0.36602380074881424 -0.34062674188236064 0 0.3833632216783107 -0.3209869783409078 0
          -0.3818164058234995 0.3228253897140445 0 0.39256870321936976 -0.3096608035458514 0
          -0.47060903100262275 -0.16889979259540988 0 0.4958544430529961 0.06425240310372095 0
          -0.10177996506056693 0.48953124385709007 0 -0.484393739205508 0.12394638122392397 0
          0.4707561000434673 0.16848944854757225 0 0.3598531777612394 -0.34713929546384953 0
          -0.20836117458178552 -0.45451690939600775 0 -0.499805912234751 -0.013930186473568354 0
          0.25693773282955396 0.428932397294036 0 0.04990417088691686 -0.4975033404190261 0
          0.11472786007858819 -0.48665955052971877 0 0.4908065616780418 -0.0954406570271733 0
          -0.1642965990548 -0.4722357753697048 0 -0.17672481291872086 -0.46772677975378224 0
          -0.4960213835287389 -0.0629506718171911 0 -0.469217207522898 -0.172728724201893 0
          -0.43167191701345903 0.2523080578616651 0 0.21834746996063711 -0.4498048269658616 0
          0.48138379386304214 0.13516524333579308 0 -0.26393087047325714 -0.42466515704873736 0
          0.4938335609409951 -0.07828418798414172 0 -0.057503074695136255 0.49668238986358837 0
          0.25215175866274003 -0.43176323442748954 0 -0.260154286857176 -0.42698916500285367 0
          -0.48868148170257975 -0.1057847316060839 0 0.3705189110969212 -0.33573164360773594 0
          -0.289163895482279 0.40790224509006273 0 -0.4422412927343366 0.23328660270290452 0
          0.4017820217441651 0.2976091514103208 0 0.3704473539342373 0.3358105983484171 0
          0.49711415322028574 0.053642508033072765 0 -0.32368058060714505 0.3810916972827163 0
          -0.4359044260476206 0.24492311314388945 0 -0.4997308650168872 0.016403126210380606 0
          0.32593677004544735 0.379163845761092 0 0.43205235419950644 0.2516560415143341 0
          -0.3157901115124871 -0.3876552662752448 0 0.06592683029878177 0.4956345962972678 0
          0.34128282918156094 -0.3654121378742494 0 0.46392803614395217 0.1864692394997518 0
          -0.4779266875820116 0.1469220245466494 0 0.48207380078436357 0.1326832717312839 0
          0.22812123038841386 -0.44492775171490057 0 -0.43468114517035633 -0.24708764038977668 0
          0.033562841914109964 0.4988722638538331 0 -0.4999379447392475 0.00787727172929212 0
          -0.35886501232028345 0.3481607429512449 0 0.2075695795427801 0.4548789615363998 0
          0.1533949757497254 -0.4758886229095429 0 0.14097996166703428 0.47971309176252586 0
          0.2857837341520512 0.4102775369114299 0 -0.096111063024117 -0.4906757213928301 0
          <InformationKey name="L2_NORM_RANGE" location="vtkDataArray" length="2">
            <Value index="0">
              0.5
            </Value>
            <Value index="1">
              0.5
            </Value>
          </InformationKey>
        </DataArray>
        <DataArray type="Float64" Name="radius" format="ascii" RangeMin="1" RangeMax="1">
          1 1 1 1 1 1
          1 1 1 1 1 1
          1 1 1 1 1 1
          1 1 1 1 1 1
          1 1 1 1 1 1
          1 1 1 1 1 1
          1 1 1 1 1 1
          1 1 1 1 1 1
          1 1 1 1 1 1
          1 1 1 1 1 1
          1 1 1 1 1 1
          1 1 1 1 1 1
          1 1 1 1 1 1
          1 1 1 1 1 1
          1 1 1 1 1 1
          1 1 1 1 1 1
          1 1 1 1 1 1
          1 1 1 1 1 1
          1 1 1 1 1 1
          1 1 1 1 1 1
          1 1 1 1 1 1
          1 1 1 1 1 1
          1 1 1 1 1 1
          1 1 1 1 1 1
          1 1 1 1 1 1
          1 1 1 1
        </DataArray>
      </PointData>
      <CellData>
      </CellData>
      <Points>
        <DataArray type="Float32" Name="Points" NumberOfComponents="3" format="ascii" RangeMin="2.8517687850613203" RangeMax="67.26984724593896">
          -37.87276840209961 33.904869079589844 0 46.77289581298828 -28.010499954223633 0
          -19.577714920043945 4.319370746612549 0 -31.179271697998047 49.84416198730469 0
          48.75048828125 46.353233337402344 0 22.51677703857422 48.503421783447266 0
          -39.76211929321289 29.52065658569336 0 -19.766510009765625 -50.328792572021484 0
          -38.84879684448242 13.270615577697754 0 37.29983901977539 0.7654281258583069 0
          29.935884475708008 -13.54539966583252 0 -28.83285903930664 17.9233455657959 0
          -10.677614212036133 23.90365219116211 0 -3.309429407119751 -7.50570011138916 0
          -32.300132751464844 -19.773210525512695 0 28.993810653686523 -18.84282112121582 0
          37.28064727783203 -35.4096794128418 0 48.80808639526367 31.158252716064453 0
          -37.704200744628906 26.130220413208008 0 -1.242188572883606 15.620725631713867 0
          -38.026695251464844 -28.422330856323242 0 -45.127445220947266 -46.063846588134766 0
          -8.959259986877441 -4.207542419433594 0 -1.2997475862503052 29.825990676879883 0
          41.76890563964844 30.48933982849121 0 20.952728271484375 -49.78498458862305 0
          20.54151725769043 14.700425148010254 0 -4.289669036865234 27.001209259033203 0
          7.805648326873779 37.89533233642578 0 30.8346004486084 -47.84412384033203 0
          33.09174728393555 32.766563415527344 0 43.595699310302734 -8.514297485351562 0
          -7.834944248199463 7.817073345184326 0 -34.17643737792969 26.816219329833984 0
          -25.960922241210938 31.6033992767334 0 49.61830520629883 -17.602828979492188 0
          -20.091896057128906 -49.13224792480469 0 -29.04268455505371 40.810279846191406 0
          34.601192474365234 45.917545318603516 0 27.656396865844727 49.242820739746094 0
          -43.373512268066406 29.581815719604492 0 9.523662567138672 23.836984634399414 0
          19.22489356994629 18.37840461730957 0 -10.414088249206543 5.809703350067139 0
          -29.576393127441406 2.28186297416687 0 -9.587174415588379 -14.713550567626953 0
          9.291252136230469 -13.544784545898438 0 46.553348541259766 -34.8580436706543 0
          -10.639930725097656 -11.520413398742676 0 22.461275100708008 -11.691472053527832 0
          42.288543701171875 -6.477435111999512 0 35.31840896606445 11.881464958190918 0
          -37.19743347167969 -2.6793627738952637 0 -15.646790504455566 3.789020538330078 0
          21.454099655151367 48.70181655883789 0 21.881254196166992 41.81522750854492 0
          1.0472716093063354 5.828991413116455 0 0.5115357041358948 -3.5271620750427246 0
          4.907679557800293 -5.483453750610352 0 35.01111602783203 10.876616477966309 0
          0.6379721760749817 47.414302825927734 0 -46.87678909301758 47.57570266723633 0
          -14.05216121673584 17.635711669921875 0 -15.028148651123047 35.69429397583008 0
          -45.33637619018555 15.27226734161377 0 24.647811889648438 -36.16816329956055 0
          48.16313171386719 -40.504676818847656 0 -22.09895133972168 30.087873458862305 0
          -42.40070343017578 13.033403396606445 0 -48.65958023071289 18.64375114440918 0
          2.909832239151001 -5.9377851486206055 0 -30.045814514160156 -35.39769744873047 0
          -11.231131553649902 26.69535255432129 0 -46.581703186035156 -24.46221923828125 0
          1.163519024848938 33.270782470703125 0 47.35492706298828 32.22876739501953 0
          -19.470176696777344 -43.993614196777344 0 -24.40966033935547 3.556119441986084 0
          39.54520797729492 -15.205784797668457 0 -47.300907135009766 -33.52256774902344 0
          37.56953048706055 -29.50716209411621 0 -23.318056106567383 -0.5214345455169678 0
          -27.613662719726562 -0.5370562672615051 0 44.40998077392578 15.68013858795166 0
          26.426589965820312 -6.316979885101318 0 4.926997661590576 -44.439876556396484 0
          -16.95785140991211 -8.80012035369873 0 40.88547897338867 31.302047729492188 0
          -24.728490829467773 -36.219547271728516 0 -1.5268487930297852 -11.610374450683594 0
          21.544315338134766 -21.37950325012207 0 12.06933879852295 31.318500518798828 0
          -18.263540267944336 -11.701151847839355 0 -14.804375648498535 31.473642349243164 0
          17.7388973236084 -12.201375961303711 0 -4.175126552581787 -19.553895950317383 0
          40.560298919677734 -1.416269302368164 0 25.6711368560791 -38.39033508300781 0
          -10.268497467041016 37.271827697753906 0 -13.17814826965332 41.90614700317383 0
          5.106163501739502 -36.129581451416016 0 -29.66936492919922 45.00454330444336 0
          49.79391860961914 -27.018749237060547 0 -48.39307403564453 -11.275223731994629 0
          28.190326690673828 -2.9198670387268066 0 4.4364094734191895 -48.53258514404297 0
          39.77139663696289 -30.21721076965332 0 38.52173614501953 -5.668787002563477 0
          -34.53055191040039 -25.6096134185791 0 29.18201446533203 -2.7726120948791504 0
          -40.954010009765625 14.844562530517578 0 13.963744163513184 7.92274808883667 0
          21.928348541259766 -14.828991889953613 0 18.46957778930664 20.954803466796875 0
          -33.95370101928711 -36.45999526977539 0 -5.313098907470703 -46.49559783935547 0
          29.921873092651367 -33.008453369140625 0 32.77179718017578 -16.82084083557129 0
          15.93517017364502 -8.347383499145508 0 27.837316513061523 -38.65597915649414 0