<?xml version="1.0"?>
<VTKFile type="PolyData" version="0.1" byte_order="LittleEndian" header_type="UInt32" compressor="vtkZLibDataCompressor">
  <PolyData>
    <Piece NumberOfPoints="154" NumberOfVerts="0" NumberOfLines="0" NumberOfStrips="0" NumberOfPolys="0">
      <PointData>
        <DataArray type="Int32" Name="id" format="ascii" RangeMin="0" RangeMax="153">
          0 1 2 3 4 5
          6 7 8 9 10 11
          12 13 14 15 16 17
          18 19 20 21 22 23
          24 25 26 27 28 29
          30 31 32 33 34 35
          36 37 38 39 40 41
          42 43 44 45 46 47
          48 49 50 51 52 53
          54 55 56 57 58 59
          60 61 62 63 64 65
          66 67 68 69 70 71
          72 73 74 75 76 77
          78 79 80 81 82 83
          84 85 86 87 88 89
          90 91 92 93 94 95
          96 97 98 99 100 101
          102 103 104 105 106 107
          108 109 110 111 112 113
          114 115 116 117 118 119
          120 121 122 123 124 125
          126 127 128 129 130 131
          132 133 134 135 136 137
          138 139 140 141 142 143
          144 145 146 147 148 149
          150 151 152 153
        </DataArray>
        <DataArray type="Float64" Name="director" NumberOfComponents="3" format="ascii" RangeMin="0.9999999999999999" RangeMax="1">
          -0.9957677491180704 -0.09190533072858989 0 0.2534715811683052 -0.9673428335083892 0
          -0.7381727724140682 -0.6746117091086755 0 0.3241626387385914 0.9460013655624571 0
          -0.9805031614321498 0.19650330893285148 0 0.01299011415145887 0.9999156249075879 0
          0.9512117740438644 0.3085387510837565 0 0.8415062283273951 0.5402474134007511 0
          0.9059120174591168 -0.4234659568644839 0 -0.3333923774736523 -0.9427881642460653 0
          -0.7171220586668563 0.6969475970066975 0 -0.9683246253489947 -0.2496946534123813 0
          -0.32132766346310465 -0.9469680737455417 0 -0.39838707255925754 0.91721738994508 0
          0.6688846136118912 0.7433662446420815 0 0.9524928959049355 -0.30456080386456474 0
          -0.9615262989990149 -0.27471289801037196 0 -0.9627741491289553 0.2703071174960364 0
          0.9888933786014007 -0.14862666570406144 0 -0.9659727808473784 -0.2586437446797867 0
          0.6825414141199649 0.7308469183154012 0 0.486657319070429 -0.8735929565851493 0
          -0.9202080381528955 -0.3914296444047119 0 0.7149548412642986 0.6991706336458515 0
          -0.8597260876429598 -0.5107553761108441 0 -0.8022080396650987 0.5970446056172684 0
          0.9693652633241857 -0.24562366795655521 0 0.7547201125688913 0.6560469127158516 0
          -0.9709293956247256 -0.23936605588889384 0 -0.5972230837095287 -0.8020751762051244 0
          0.6887626333902565 0.7249869204649966 0 -0.9934509282109905 -0.11425958706700012 0
          -0.9574194196524193 0.2887006319224546 0 0.07438790783016919 0.9972293814206691 0
          0.9829903025354404 -0.18365746682692569 0 0.206864963699014 0.9783695042231262 0
          0.6889427573060372 0.7248157539372022 0 -0.8436120494506959 -0.5369531730249824 0
          -0.9183019843427593 -0.39588062032909693 0 0.9868902470974308 0.1613928132971599 0
          -0.2525694176775464 0.9675787767691193 0 0.9096231528404063 -0.4154343748616368 0
          0.026384792841742367 -0.9996518607528815 0 -0.9709310692452405 -0.23935926715774739 0
          0.7323225675964017 0.6809578966345964 0 -0.9673735956861016 0.25335415206651496 0
          0.41780988680551245 -0.9085344784253181 0 -0.9971206041487477 0.07583205642758511 0
          -0.7945759769008554 -0.6071647362388987 0 -0.6520269432466579 0.7581957961373958 0
          0.7730386324690468 -0.6343589462681093 0 0.9791706412032884 -0.2030390489672883 0
          0.9792318119361274 -0.20274382479446507 0 -0.05867472299925489 0.9982771543418996 0
          -0.5904862570651195 0.8070476938925144 0 -0.9999050624813136 0.013779188083495576 0
          -0.8297513258424261 -0.558133261204469 0 -0.42996100047922164 0.9028474611289035 0
          -0.6607078747207348 -0.7506431271130175 0 0.7579195218685921 -0.6523480653535233 0
          -0.9727615881210685 -0.23180787880522236 0 -0.3362552925876418 -0.9417708735179695 0
          -0.7180842829908968 -0.6959561498553265 0 0.9461293735071088 -0.32378883332666974 0
          0.34918890587294527 -0.9370523507335411 0 -0.9160223277139005 0.40112728046046364 0
          0.7521024315717068 -0.6590462293526351 0 -0.9695024120187687 -0.24508176817093028 0
          -0.44713069507905795 0.8944686364082972 0 0.999950671693896 0.00993248100558799 0
          0.0916616137150045 0.9957902131328472 0 -0.10727444446080667 0.994229447142673 0
          0.21526346797661558 0.9765560093280266 0 -0.213875202802273 0.9768609919667621 0
          -0.21985664535619873 -0.9755321909054148 0 -0.9867245899421049 0.16240253570552676 0
          -0.9795370311596396 0.20126401711920394 0 0.42400319923817487 -0.9056606908968682 0
          -0.6522369224104886 0.7580151694026277 0 -0.2117674728035573 -0.9773200793304078 0
          -0.027563896968228977 0.9996200436085327 0 0.9247983038234894 -0.3804577469906441 0
          -0.6787075095755692 -0.7344086848926343 0 -0.9531494653563226 -0.302499746596516 0
          -0.9353363671496622 0.3537596363171926 0 0.33495424321209877 0.9422343949114839 0
          -0.9716508683442 -0.236420367240139 0 -0.5136856340800693 -0.8579784783663033 0
          0.7638266878999544 0.645421405634943 0 0.5724262805504574 0.8199561898877092 0
          0.6448266361713814 -0.7643288619984862 0 -0.27296737954109684 -0.9620232895863108 0
          -0.9294207132455649 -0.3690218662763842 0 -0.19582759611397865 -0.9806383393485186 0
          0.16480940565150007 0.9863254330132623 0 0.9989635017078401 -0.045518372725858146 0
          -0.8532455272917202 0.5215094152138333 0 0.9925610696196326 0.1217477846842843 0
          -0.702460462768023 -0.7117227678300976 0 0.8401811816545209 -0.542305801180121 0
          -0.7901049729783441 0.6129715586182527 0 0.762229441723161 -0.6473069427793883 0
          -0.9271075575202349 -0.3747953798926348 0 0.9966120840584223 0.08224569234147315 0
          -0.2634230766247589 0.9646804044353479 0 -0.9277467987994484 0.37321023206414883 0
          0.9232539315182042 0.3841902887062336 0 0.7135346269022628 -0.700619965610065 0
          -0.4500411841023252 -0.8930078009803594 0 -0.9952453047839602 0.09740011963792491 0
          0.5674576138155287 0.8234026090089746 0 0.1783238999407512 -0.9839718424375369 0
          0.09630846935561571 -0.9953515352529368 0 0.9987613706727348 -0.049756652338355384 0
          -0.4277446643651978 -0.9038996084229178 0 -0.2913289920308656 -0.9566229238327293 0
          -0.9984888014885223 -0.0549555575170914 0 -0.9242964401078241 -0.381675373588608 0
          -0.918293875147718 0.3958994302423121 0 0.6171825689525502 -0.7868199772382057 0
          0.9818334983995793 0.1897445161801608 0 -0.6214047417503373 -0.7834897235638746 0
          0.9891843828850874 -0.14667738972400907 0 -0.13606651482347623 0.9906997040192315 0
          0.4796431008360071 -0.8774636720801722 0 -0.5741170281734683 -0.8187732518599181 0
          -0.9683250887789705 -0.24969285620777962 0 0.8091823636179402 -0.5875575736978323 0
          -0.5544415103338265 0.8322226935254442 0 -0.819414911753662 0.5732008394932253 0
          0.781774669427883 0.6235610364999759 0 0.6160409870550616 0.7877140993204484 0
          0.9993600225641815 0.03577073245711581 0 -0.7250762610172532 0.6886685819094989 0
          -0.9297869750330175 0.36809805902632914 0 -0.9953997210456457 -0.09580916105598086 0
          0.7367837086131114 0.6761285134664192 0 0.824083860556612 0.5664678197127445 0
          -0.6402099080312975 -0.7682000219074181 0 0.25873004934732596 0.9659496682357369 0
          0.6746804401568639 -0.7381099536449433 0 0.9862548242728905 0.1652314183151921 0
          -0.9330214363172593 0.3598207878548409 0 0.9654279866685163 0.2606699111082353 0
          0.44099111096499 -0.8975114707065664 0 -0.9110180763001405 -0.41236642037681875 0
          -0.018746127863759867 0.9998242759055791 0 -0.998032682532672 0.06269581004053497 0
          -0.7724217327748685 0.6351099642873427 0 0.40936343120473473 0.9123714052907875 0
          0.250403282989407 -0.9681416197375914 0 0.3388177545814243 0.9408520229985169 0
          0.5846343525826849 0.811296908523769 0 -0.20453286871709944 -0.9788596965931092 0
          <InformationKey name="L2_NORM_RANGE" location="vtkDataArray" length="2">
            <Value index="0">
              1
            </Value>
            <Value index="1">
              1
            </Value>
          </InformationKey>
        </DataArray>
        <DataArray type="Float64" Name="velocity" NumberOfComponents="3" format="ascii" RangeMin="2.98391528750295" RangeMax="65.61664053985334">
          20.472372037415383 -30.489259884928693 0 -7.778161120144524 43.605506408926914 0
          -35.778279556590725 14.318100471258902 0 -2.7267860528004704 -6.306708942777526 0
          -25.56803597993237 0.5919415230237348 0 40.69440930810454 -42.34960265147567 0
          21.390392053252754 11.720491675449018 0 -31.091580543867785 -10.301819378431787 0
          -22.233594277397 35.80993014386058 0 40.8936574712134 11.727908496204755 0
          -31.918129728714472 1.502371966558826 0 32.46317064138093 -14.067556233339687 0
          31.61170207931397 -20.66117562390716 0 -32.788218903188394 -0.7210412736466054 0
          -30.467523066969363 36.43074923190564 0 -29.58028331655805 11.627227611362315 0
          37.80505508071815 -10.753091333426255 0 44.65772551607054 -33.330173144632525 0
          47.18774005931614 6.396489460552942 0 9.836891189866492 -36.87781496106794 0
          6.677739541459459 5.438027088135769 0 -18.951003944933063 -37.93510690561732 0
          23.77908201111339 -25.727634747998636 0 32.285914726045576 -31.45240287607238 0
          -18.732306147503376 38.172541468590836 0 17.42129460906331 23.929755673071398 0
          -43.74567596165927 -36.843843838172035 0 -41.00470913383489 -49.1685554695042 0
          -4.3489588147394045 13.430332075080756 0 2.9762992276979077 -0.21305715242312573 0
          -16.420210149222868 -24.717665071237764 0 -26.63245586108499 -32.68369682188443 0
          9.59810303037343 22.68931438280859 0 37.757309281314306 20.71597266757422 0
          -26.523439665569285 -2.200425364398683 0 -48.17882370239545 24.733119867345934 0
          15.472358145094617 -42.19330576503555 0 -2.7230899171649696 49.647506705142575 0
          3.209752212846098 39.943600631846664 0 27.290092728339346 -29.624030405099575 0
          40.710862227344634 -12.518743865476708 0 34.808888796398136 -17.330075407408792 0
          -17.326333983387784 15.921061981020685 0 8.676498234140595 -45.101679767889145 0
          26.99656655139428 -0.8247828969564566 0 -1.181598492863479 -7.087342925864128 0
          -10.527228461045638 27.645380145270124 0 47.47543864880045 24.850515939083976 0
          13.45020038299144 -42.781974126121774 0 13.33632968921519 2.89206325620421 0
          -20.383234879262602 -17.467213088655853 0 13.111992425538233 49.45054225750374 0
          1.6047826830209004 22.445391370448775 0 -25.442525168919026 -16.766088433362327 0
          24.860911549332883 18.296648546241826 0 18.127137052491975 -42.11576276898946 0
          -4.106371249565804 19.81468592825003 0 -43.2115168522386 -43.085994704941484 0
          2.7042817825837204 -23.795120132132308 0 -1.6624837545658195 -36.91945356486498 0
          -40.55592314206473 -37.96183180819797 0 46.98372058379586 25.62816454897687 0
          -23.182362140209666 22.4905983535036 0 -8.42374893276238 -2.5281598168396826 0
          -44.45585735866184 11.374414308737222 0 -0.9380815156004232 40.44748670579848 0
          43.5214270198436 41.82766196839604 0 -19.617472876146607 29.010177679462174 0
          -27.377259211045168 -5.104813753149479 0 1.0108912986547693 -26.93680745999526 0
          21.18807799653547 48.4452609761332 0 15.521324819791857 -22.733301715898534 0
          -3.0984436752635744 -49.699879474370995 0 -5.357606698271908 47.09441502974741 0
          -19.533649987483585 -28.48909553641595 0 -25.241492794096537 30.645102659141713 0
          -1.3628901407151872 -9.249808436218693 0 -28.437070584076316 4.0252086974848424 0
          22.302423751473526 -21.630608392707323 0 4.286209731170565 25.592468486596516 0
          -16.80227135673981 30.176297340482108 0 35.70724318896097 -48.51082997011254 0
          38.494266527440914 9.308694076898924 0 -41.37827709570729 42.48759424258512 0
          41.371957205314274 48.07567751376408 0 40.00221093710812 44.971458396046486 0
          43.45219546574209 -49.16757290067578 0 27.77940311086799 -47.40411222574361 0
          8.787704962513757 14.978077069606684 0 -17.176354508003442 -38.89206379839693 0
          -37.572734230027905 47.39150589914381 0 3.322947059262674 16.230028184641725 0
          20.82576325094061 -43.12614201683975 0 -29.404442159877867 -6.6570323329381935 0
          -48.88074135310182 -43.07374742736768 0 -15.693819004659524 -18.776991949103287 0
          49.2742614956165 -23.093566379026992 0 35.70662412955289 -14.438908494432013 0
          24.676827977366614 34.48562696853686 0 -28.28613766609157 46.49521791482232 0
          21.219265309149932 48.266786794162286 0 25.989900495501132 -30.673962513745963 0
          -14.741048879365302 -30.369965831724773 0 33.206792723445574 45.25947670903301 0
          26.73700517552618 36.1968809297727 0 -4.433626259916984 -16.731616061562868 0
          33.82599634129042 5.430878965379037 0 -37.91344272052366 -28.781627030961573 0
          -0.8760744559602713 -9.034520229977083 0 25.951148963832622 -14.29357740625877 0
          27.17860558051683 48.15404052238152 0 34.61617221348607 33.462162550860555 0
          -13.28055184508198 -44.93740558320786 0 47.55616001461492 34.25892934866374 0
          36.946038841117556 -42.45015674570037 0 -46.76239316488481 11.393180618063838 0
          23.568028568935404 11.552780427737098 0 16.263007945057282 45.12644264060411 0
          -23.411248530157515 41.93857265065735 0 -38.160345232049345 -18.69342940760771 0
          37.21153998486223 -26.635630373860984 0 30.80584946405935 5.653176675427417 0
          44.35923105765637 0.370346282237378 0 16.64168251311186 -34.7034267378138 0
          47.322877480901255 13.376690736606477 0 -32.1350217035443 -42.58571958176201 0
          -0.5025219679409361 28.59799073613067 0 -3.5320261053794297 38.30316610148137 0
          14.736889949280638 40.32409694969634 0 -49.402638529229115 19.356180838194604 0
          8.508964450503598 -39.46387075781778 0 49.03198966734128 -27.000797471280585 0
          -16.70921662991016 18.938285128010065 0 46.14207459237997 -27.3400906744995 0
          42.424140585792586 37.62461911345025 0 -6.825547086494495 -2.911259141055119 0
          6.210247997996007 33.76154121673389 0 -35.16911208657487 13.927818279591207 0
          49.5593687100304 13.93941034113417 0 -6.0481675260535965 -47.161165000275155 0
          -41.68490984500472 3.0367185203014984 0 28.200151364646487 23.664522522360798 0
          -30.983903256438072 -23.817273645282434 0 -4.775523168997552 -3.9973115200368454 0
          17.36371431475763 -32.304692769073746 0 -31.21691646176371 -40.35131875297581 0
          -17.61253928181918 -32.96735050248542 0 -47.52659271635095 33.064298464373394 0
          -25.51716157275273 -35.79649925661745 0 -34.4558032257712 -19.698927528483058 0
          -46.64276824331557 -9.071061809886274 0 28.312364537561464 -5.662808823633235 0
          -48.25117889494449 -21.421563451189467 0 45.139670111270334 -32.86849758057289 0
          <InformationKey name="L2_NORM_RANGE" location="vtkDataArray" length="2">
            <Value index="0">
              2.9839152875
            </Value>
            <Value index="1">
              65.61664054
            </Value>
          </InformationKey>
        </DataArray>
        <DataArray type="Float64" Name="force" NumberOfComponents="3" format="ascii" RangeMin="0.49999999999999994" RangeMax="0.5">
          -0.4978838745590352 -0.045952665364294945 0 0.1267357905841526 -0.4836714167541946 0
          -0.3690863862070341 -0.33730585455433776 0 0.1620813193692957 0.47300068278122853 0
          -0.4902515807160749 0.09825165446642574 0 0.006495057075729435 0.49995781245379395 0
          0.4756058870219322 0.15426937554187825 0 0.42075311416369754 0.27012370670037555 0
          0.4529560087295584 -0.21173297843224195 0 -0.16669618873682615 -0.47139408212303263 0
          -0.35856102933342815 0.34847379850334875 0 -0.48416231267449733 -0.12484732670619066 0
          -0.16066383173155233 -0.47348403687277085 0 -0.19919353627962877 0.45860869497254 0
          0.3344423068059456 0.3716831223210407 0 0.47624644795246773 -0.15228040193228237 0
          -0.48076314949950744 -0.13735644900518598 0 -0.48138707456447766 0.1351535587480182 0
          0.49444668930070035 -0.07431333285203072 0 -0.4829863904236892 -0.12932187233989334 0
          0.34127070705998247 0.3654234591577006 0 0.2433286595352145 -0.4367964782925747 0
          -0.46010401907644777 -0.19571482220235595 0 0.3574774206321493 0.34958531682292576 0
          -0.4298630438214799 -0.25537768805542205 0 -0.40110401983254934 0.2985223028086342 0
          0.48468263166209286 -0.12281183397827761 0 0.37736005628444563 0.3280234563579258 0
          -0.4854646978123628 -0.11968302794444692 0 -0.29861154185476435 -0.4010375881025622 0
          0.3443813166951282 0.3624934602324983 0 -0.49672546410549523 -0.05712979353350006 0
          -0.47870970982620964 0.1443503159612273 0 0.03719395391508459 0.49861469071033454 0
          0.4914951512677202 -0.09182873341346284 0 0.103432481849507 0.4891847521115631 0
          0.3444713786530186 0.3624078769686011 0 -0.42180602472534795 -0.2684765865124912 0
          -0.45915099217137967 -0.19794031016454847 0 0.4934451235487154 0.08069640664857995 0
          -0.1262847088387732 0.48378938838455965 0 0.45481157642020315 -0.2077171874308184 0
          0.013192396420871184 -0.49982593037644074 0 -0.48546553462262027 -0.11967963357887369 0
          0.36616128379820084 0.3404789483172982 0 -0.4836867978430508 0.12667707603325748 0
          0.20890494340275623 -0.45426723921265905 0 -0.49856030207437385 0.03791602821379256 0
          -0.3972879884504277 -0.30358236811944933 0 -0.32601347162332894 0.3790978980686979 0
          0.3865193162345234 -0.31717947313405465 0 0.4895853206016442 -0.10151952448364415 0
          0.4896159059680637 -0.10137191239723253 0 -0.029337361499627446 0.4991385771709498 0
          -0.29524312853255974 0.4035238469462572 0 -0.4999525312406568 0.006889594041747788 0
          -0.41487566292121303 -0.2790666306022345 0 -0.21498050023961082 0.45142373056445173 0
          -0.3303539373603674 -0.37532156355650875 0 0.37895976093429606 -0.32617403267676165 0
          -0.48638079406053425 -0.11590393940261118 0 -0.1681276462938209 -0.47088543675898475 0
          -0.3590421414954484 -0.34797807492766325 0 0.4730646867535544 -0.16189441666333487 0
          0.17459445293647263 -0.46852617536677055 0 -0.45801116385695023 0.20056364023023182 0
          0.3760512157858534 -0.32952311467631756 0 -0.48475120600938437 -0.12254088408546514 0
          -0.22356534753952897 0.4472343182041486 0 0.499975335846948 0.004966240502793995 0
          0.04583080685750225 0.4978951065664236 0 -0.053637222230403334 0.4971147235713365 0
          0.10763173398830779 0.4882780046640133 0 -0.1069376014011365 0.48843049598338106 0
          -0.10992832267809936 -0.4877660954527074 0 -0.49336229497105244 0.08120126785276338 0
          -0.4897685155798198 0.10063200855960197 0 0.21200159961908743 -0.4528303454484341 0
          -0.3261184612052443 0.37900758470131385 0 -0.10588373640177864 -0.4886600396652039 0
          -0.013781948484114489 0.49981002180426637 0 0.4623991519117447 -0.19022887349532205 0
          -0.3393537547877846 -0.36720434244631717 0 -0.4765747326781613 -0.151249873298258 0
          -0.4676681835748311 0.1768798181585963 0 0.16747712160604938 0.47111719745574193 0
          -0.4858254341721 -0.1182101836200695 0 -0.25684281704003464 -0.4289892391831516 0
          0.3819133439499772 0.3227107028174715 0 0.2862131402752287 0.4099780949438546 0
          0.3224133180856907 -0.3821644309992431 0 -0.13648368977054842 -0.4810116447931554 0
          -0.46471035662278243 -0.1845109331381921 0 -0.09791379805698933 -0.4903191696742593 0
          0.08240470282575003 0.4931627165066311 0 0.49948175085392005 -0.022759186362929073 0
          -0.4266227636458601 0.26075470760691666 0 0.4962805348098163 0.06087389234214215 0
          -0.3512302313840115 -0.3558613839150488 0 0.42009059082726047 -0.2711529005900605 0
          -0.39505248648917207 0.30648577930912635 0 0.3811147208615805 -0.32365347138969414 0
          -0.46355377876011744 -0.1873976899463174 0 0.49830604202921114 0.041122846170736575 0
          -0.13171153831237944 0.48234020221767393 0 -0.4638733993997242 0.18660511603207441 0
          0.4616269657591021 0.1920951443531168 0 0.3567673134511314 -0.3503099828050325 0
          -0.2250205920511626 -0.4465039004901797 0 -0.4976226523919801 0.04870005981896246 0
          0.28372880690776436 0.4117013045044873 0 0.0891619499703756 -0.49198592121876844 0
          0.048154234677807856 -0.4976757676264684 0 0.4993806853363674 -0.024878326169177692 0
          -0.2138723321825989 -0.4519498042114589 0 -0.1456644960154328 -0.47831146191636464 0
          -0.49924440074426113 -0.0274777787585457 0 -0.46214822005391204 -0.190837686794304 0
          -0.459146937573859 0.19794971512115606 0 0.3085912844762751 -0.39340998861910287 0
          0.49091674919978967 0.0948722580900804 0 -0.31070237087516867 -0.3917448617819373 0
          0.4945921914425437 -0.07333869486200453 0 -0.06803325741173812 0.49534985200961573 0
          0.23982155041800354 -0.4387318360400861 0 -0.28705851408673416 -0.40938662592995906 0
          -0.48416254438948525 -0.12484642810388981 0 0.4045911818089701 -0.2937787868489162 0
          -0.27722075516691325 0.4161113467627221 0 -0.409707455876831 0.28660041974661266 0
          0.3908873347139415 0.3117805182499879 0 0.3080204935275308 0.3938570496602242 0
          0.4996800112820908 0.017885366228557905 0 -0.3625381305086266 0.34433429095474943 0
          -0.4648934875165088 0.18404902951316457 0 -0.49769986052282283 -0.04790458052799043 0
          0.3683918543065557 0.3380642567332096 0 0.412041930278306 0.28323390985637226 0
          -0.32010495401564876 -0.38410001095370905 0 0.12936502467366298 0.48297483411786846 0
          0.33734022007843195 -0.3690549768224716 0 0.49312741213644523 0.08261570915759606 0
          -0.46651071815862966 0.17991039392742045 0 0.48271399333425813 0.13033495555411764 0
          0.220495555482495 -0.4487557353532832 0 -0.45550903815007027 -0.20618321018840938 0
          -0.009373063931879934 0.49991213795278955 0 -0.499016341266336 0.031347905020267484 0
          -0.38621086638743424 0.31755498214367134 0 0.20468171560236736 0.45618570264539376 0
          0.1252016414947035 -0.4840708098687957 0 0.16940887729071216 0.47042601149925845 0
          0.29231717629134246 0.4056484542618845 0 -0.10226643435854972 -0.4894298482965546 0
          <InformationKey name="L2_NORM_RANGE" location="vtkDataArray" length="2">
            <Value index="0">
              0.5
            </Value>
            <Value index="1">
              0.5
            </Value>
          </InformationKey>
        </DataArray>
        <DataArray type="Float64" Name="radius" format="ascii" RangeMin="1" RangeMax="1">
          1 1 1 1 1 1
          1 1 1 1 1 1
          1 1 1 1 1 1
          1 1 1 1 1 1
          1 1 1 1 1 1
          1 1 1 1 1 1
          1 1 1 1 1 1
          1 1 1 1 1 1
          1 1 1 1 1 1
          1 1 1 1 1 1
          1 1 1 1 1 1
          1 1 1 1 1 1
          1 1 1 1 1 1
          1 1 1 1 1 1
          1 1 1 1 1 1
          1 1 1 1 1 1
          1 1 1 1 1 1
          1 1 1 1 1 1
          1 1 1 1 1 1
          1 1 1 1 1 1
          1 1 1 1 1 1
          1 1 1 1 1 1
          1 1 1 1 1 1
          1 1 1 1 1 1
          1 1 1 1 1 1
          1 1 1 1
        </DataArray>
      </PointData>
      <CellData>
      </CellData>
      <Points>
        <DataArray type="Float32" Name="Points" NumberOfComponents="3" format="ascii" RangeMin="2.8213814505983046" RangeMax="67.21712990758604">
          -37.81653594970703 33.94041061401367 0 46.89275360107422 -27.92582130432129 0
          -19.661664962768555 4.241402626037598 0 -31.269332885742188 49.874908447265625 0
          48.72398376464844 46.30459976196289 0 22.660999298095703 48.69953536987305 0
          -39.71936798095703 29.57061767578125 0 -19.784059524536133 -50.371009826660156 0
          -38.89342498779297 13.254115104675293 0 37.3266487121582 0.6925314664840698 0
          29.974214553833008 -13.634072303771973 0 -28.709959030151367 17.922035217285156 0
          -10.762959480285645 23.862215042114258 0 -3.320831537246704 -7.437559604644775 0
          -32.44175338745117 -19.779699325561523 0 28.917648315429688 -18.830652236938477 0
          37.263614654541016 -35.44578552246094 0 48.789913177490234 31.178945541381836 0
          -37.78120422363281 26.160972595214844 0 -1.2825233936309814 15.680463790893555 0
          -37.97462463378906 -28.46235466003418 0 -44.99467468261719 -46.26276397705078 0
          -8.889386177062988 -4.199363708496094 0 -1.1590325832366943 29.853166580200195 0
          41.851905822753906 30.556133270263672 0 21.077150344848633 -49.7542724609375 0
          20.54975128173828 14.673619270324707 0 -4.183264255523682 27.05743980407715 0
          7.794651508331299 37.82798385620117 0 30.9581356048584 -47.79420852661133 0
          33.09515380859375 32.86233139038086 0 43.71083450317383 -8.485213279724121 0
          -7.828724384307861 7.688752174377441 0 -34.1643180847168 26.810781478881836 0
          -26.076509475708008 31.58385467529297 0 49.68317413330078 -17.512372970581055 0
          -20.09385871887207 -49.204010009765625 0 -28.978635787963867 40.71139144897461 0
          34.591339111328125 45.900535583496094 0 27.57209587097168 49.327857971191406 0
          -43.32333755493164 29.546878814697266 0 9.603466987609863 23.840063095092773 0
          19.101484298706055 18.274429321289062 0 -10.428935050964355 5.7743425369262695 0
          -29.376728057861328 2.284205436706543 0 -9.550238609313965 -14.765427589416504 0
          9.239596366882324 -13.465510368347168 0 46.509883880615234 -34.8878173828125 0
          -10.655423164367676 -11.577789306640625 0 22.320968627929688 -11.682523727416992 0
          42.334251403808594 -6.38828182220459 0 35.2582893371582 11.924213409423828 0
          -37.25295639038086 -2.6370561122894287 0 -15.759690284729004 3.750432014465332 0
          21.542098999023438 48.67548370361328 0 21.931852340698242 41.7489128112793 0
          1.0530654191970825 5.9456562995910645 0 0.4937554597854614 -3.4396443367004395 0
          4.9037604331970215 -5.579429626464844 0 35.002197265625 10.798526763916016 0
          0.5935193300247192 47.23700714111328 0 -46.91638946533203 47.62700653076172 0
          -13.947555541992188 17.628253936767578 0 -15.115079879760742 35.5371208190918 0
          -45.22096633911133 15.253641128540039 0 24.605417251586914 -36.12004470825195 0
          47.959190368652344 -40.573238372802734 0 -22.024532318115234 30.150903701782227 0
          -42.43251037597656 13.025574684143066 0 -48.76226043701172 18.53415298461914 0
          2.7898924350738525 -5.895411491394043 0 -30.01919174194336 -35.3756217956543 0
          -11.328182220458984 26.65557098388672 0 -46.63138198852539 -24.378496170043945 0
          1.2303787469863892 33.170379638671875 0 47.37855911254883 32.27238082885742 0
          -19.469825744628906 -44.04103469848633 0 -24.398630142211914 3.585118532180786 0
          39.49801254272461 -15.114582061767578 0 -47.21491241455078 -33.397064208984375 0
          37.59408950805664 -29.556079864501953 0 -23.284343719482422 -0.5883662700653076 0
          -27.75611114501953 -0.5769150257110596 0 44.47296142578125 15.616096496582031 0
          26.48810386657715 -6.344785213470459 0 4.793173789978027 -44.337074279785156 0
          -16.936742782592773 -8.922944068908691 0 40.73738479614258 31.414169311523438 0
          -24.784259796142578 -36.2706413269043 0 -1.5687335729599 -11.507951736450195 0
          21.596416473388672 -21.357511520385742 0 12.069581031799316 31.456899642944336 0
          -18.31964111328125 -11.681458473205566 0 -14.747878074645996 31.472028732299805 0
          17.63889503479004 -12.243534088134766 0 -4.136868476867676 -19.564001083374023 0
          40.67704772949219 -1.3969229459762573 0 25.630176544189453 -38.39867401123047 0
          -10.30285358428955 37.341697692871094 0 -13.209919929504395 41.95974349975586 0
          5.05638313293457 -36.14020538330078 0 -29.716840744018555 44.942813873291016 0
          49.798377990722656 -26.766374588012695 0 -48.392669677734375 -11.438563346862793 0
          28.34819221496582 -2.8600399494171143 0 4.404507160186768 -48.39213562011719 0
          39.8600959777832 -30.183757781982422 0 38.509002685546875 -5.63019323348999 0
          -34.56378173828125 -25.73877716064453 0 29.101966857910156 -2.7122206687927246 0
          -40.9554443359375 14.766016960144043 0 13.985629081726074 7.884965896606445 0
          21.983928680419922 -14.819297790527344 0 18.41755485534668 20.866132736206055 0
          -33.941162109375 -36.41960525512695 0 -5.352746963500977 -46.4803466796875 0
          29.99253273010254 -33.0661506652832 0 32.773929595947266 -16.824085235595703 0
          15.904831886291504 -8.32984447479248 0 27.823776245117188 -38.65950012207031 0