<?xml version="1.0"?>
<VTKFile type="PolyData" version="0.1" byte_order="LittleEndian" header_type="UInt32" compressor="vtkZLibDataCompressor">
  <PolyData>
    <Piece NumberOfPoints="154" NumberOfVerts="0" NumberOfLines="0" NumberOfStrips="0" NumberOfPolys="0">
      <PointData>
        <DataArray type="Int32" Name="id" format="ascii" RangeMin="0" RangeMax="153">
          0 1 2 3 4 5
          6 7 8 9 10 11
          12 13 14 15 16 17
          18 19 20 21 22 23
          24 25 26 27 28 29
          30 31 32 33 34 35
          36 37 38 39 40 41
          42 43 44 45 46 47
          48 49 50 51 52 53
          54 55 56 57 58 59
          60 61 62 63 64 65
          66 67 68 69 70 71
          72 73 74 75 76 77
          78 79 80 81 82 83
          84 85 86 87 88 89
          90 91 92 93 94 95
          96 97 98 99 100 101
          102 103 104 105 106 107
          108 109 110 111 112 113
          114 115 116 117 118 119
          120 121 122 123 124 125
          126 127 128 129 130 131
          132 133 134 135 136 137
          138 139 140 141 142 143
          144 145 146 147 148 149
          150 151 152 153
        </DataArray>
        <DataArray type="Float64" Name="director" NumberOfComponents="3" format="ascii" RangeMin="0.9999999999999999" RangeMax="1">
          -0.9930802357096844 0.1174378365042442 0 0.28330160209006394 -0.9590308661629213 0
          -0.7912340835144792 -0.6115133891297901 0 0.16798021577966635 0.9857903667142506 0
          -0.9701014027331917 0.24269995553170953 0 -0.13203070709976167 0.9912456266651253 0
          0.9086021389285341 0.41766272653241715 0 0.872818568189613 0.4880448207116165 0
          0.9650916895182534 -0.26191225787046146 0 -0.5186330185082544 -0.8549969544466323 0
          -0.6955059729610463 0.7185203139616223 0 -0.9871559681793998 -0.1597594895077971 0
          -0.5410747985609868 -0.8409744718849601 0 -0.23768011171903855 0.9713434843005976 0
          0.5398208748383975 0.8417799136880775 0 0.9192415954857868 -0.39369390283409916 0
          -0.9574774049255904 -0.2885082651449643 0 -0.9150321181709139 0.40338098953179574 0
          0.9921721580986738 0.12487757482358582 0 -0.9469492718697399 -0.3213830681684545 0
          0.6532157812866544 0.7571718055224096 0 0.5693487322339674 -0.8220961142734918 0
          -0.942235166406139 -0.334952072971038 0 0.8136205836967692 0.5813962037930147 0
          -0.9046979808832639 -0.4260534747959995 0 -0.8803719880582653 0.47428384185246875 0
          0.9575913923508924 -0.2881297022097499 0 0.5699901586133731 0.8216515192488247 0
          -0.9392962007070542 -0.343107340838539 0 -0.607987249042719 -0.7939467897796847 0
          0.6954041706833054 0.7186188415260654 0 -0.9900365443405894 -0.1408106560958512 0
          -0.9963674144182424 0.08515853148984144 0 -0.09912113531649512 0.9950753742976303 0
          0.9894364089933443 -0.1449675569165584 0 0.25650663023252546 0.966542471206907 0
          0.6154960327673478 0.7881399835357016 0 -0.7911940550401855 -0.6115651782672621 0
          -0.9771037389638865 -0.21276344447012782 0 0.9738434393276489 0.22722006002660908 0
          -0.12049697964716768 0.9927136938190739 0 0.8390875185774558 -0.5439964486717977 0
          -0.09765510452294783 -0.9952203175983758 0 -0.9330021771778831 -0.35987072315114776 0
          0.7627673626906272 0.646672985684407 0 -0.8205382829406856 0.5715915729161437 0
          0.434317445870801 -0.9007598771105781 0 -0.9952493894272323 -0.09735837326455984 0
          -0.8214678967423028 -0.5702547629102078 0 -0.36558720576348835 0.9307770919946649 0
          0.7997543599913529 -0.6003273804140717 0 0.9940819971076883 -0.10863232956348694 0
          0.9843803644880572 -0.17605481535692147 0 0.1233567136838903 0.9923623940824797 0
          -0.49752261320235525 0.8674510068887462 0 -0.9767454272094478 0.21440235638964714 0
          -0.7997849768827323 -0.6002865905154697 0 -0.41020992932621164 0.9119911259887261 0
          -0.47997162143454564 -0.8772840147965157 0 0.9262719383741737 -0.37685580290152226 0
          -0.9835002060362894 -0.18090700574211116 0 -0.24575423022255954 -0.9693321713054391 0
          -0.7395982207623769 -0.6730486400291783 0 0.9835124743896151 -0.18084029617321676 0
          0.5743586712531993 -0.818603760531467 0 -0.982836806641596 0.18447713004746713 0
          0.6950368822689937 -0.718974083180887 0 -0.9578667628124166 -0.28721292571759666 0
          -0.3327838692353308 0.9430031263875864 0 0.9952769205274092 -0.09707652376077927 0
          0.3341477546743198 0.9425207043063354 0 -0.21804816866828852 0.9759380083490988 0
          0.13543297926799513 0.9907865098630455 0 -0.36254835168896143 0.9319649632296362 0
          -0.1384234853556804 -0.9903731310480842 0 -0.9893126230358114 0.1458099238803813 0
          -0.9884613053906968 0.1514735876161905 0 0.3291172713607095 -0.9442890562174705 0
          -0.6857647432942178 0.7278232730921811 0 -0.02999048627569991 -0.9995501841993463 0
          -0.09106476668032797 0.9958449720059129 0 0.8729716974676026 -0.48777086364453187 0
          -0.6734724764301051 -0.7392122993370048 0 -0.9288887217579179 -0.370358937506497 0
          -0.9218617813327156 0.3875188461456713 0 0.02363872801012421 0.999720566227415 0
          -0.9948768229217825 -0.1010945459115389 0 -0.44643674018102913 -0.8948151971309698 0
          0.8472037507202702 0.5312681100588537 0 0.530728720025811 0.8475417545701004 0
          0.7044264212323753 -0.7097770192600971 0 -0.1102513294115892 -0.9939037399884243 0
          -0.8931490181597261 -0.4497608601916324 0 -0.21503391311771505 -0.9766065821042181 0
          0.010913864186365455 0.9999404420106838 0 0.9900569578367623 -0.14066705456152656 0
          -0.8334672881207658 0.552568800813633 0 0.9972285762004067 -0.07439870166413873 0
          -0.823195955192756 -0.5677573595773867 0 0.8336988733049232 -0.5522193302032279 0
          -0.6506936168104951 0.7593403828600692 0 0.6133823958024239 -0.7897860700972629 0
          -0.8736889333944677 -0.48648499222898683 0 0.9933157682376821 0.1154286990760246 0
          -0.42737853945600823 0.9040727758385656 0 -0.9313726508979927 0.36406728108860026 0
          0.9923525481308408 0.12343589517732353 0 0.6264020777700713 -0.7795001199264421 0
          -0.50916242539672 -0.8606704506163376 0 -0.9954187023651123 -0.09561175127439057 0
          0.5905818862296398 0.8069777169522346 0 0.36697807359259577 -0.9302295918225066 0
          0.35908347569080157 -0.9333054470460427 0 0.9958978481608949 -0.09048467289270146 0
          -0.5383430322364094 -0.8427258033562923 0 -0.2878649038140613 -0.9576710276248944 0
          -0.999966723706423 -0.008157909036152275 0 -0.9749207225264915 -0.22255243154911533 0
          -0.9180411762916678 0.3964850547410468 0 0.4245564191908828 -0.9054014838312424 0
          0.9684797256771629 0.2490923944087559 0 -0.4817568131888125 -0.8763049543088066 0
          0.9379915241819756 -0.3466581898106175 0 -0.2482071957361402 0.9687069670363693 0
          0.4263812777414952 -0.9045435346026912 0 -0.45760670771759443 -0.8891547115389223 0
          -0.9992860198828768 -0.03778161545829827 0 0.7801773816943013 -0.6255583530675812 0
          -0.5611497453641163 0.8277143005154541 0 -0.8367750018271203 0.5475468896060162 0
          0.7992145944325627 0.6010457819883559 0 0.739258485268426 0.6734217786488884 0
          0.9977751442362021 0.066669044874111 0 -0.6884497451503127 0.7252840467034067 0
          -0.8606243585620635 0.5092403297556437 0 -0.9813420801600902 0.1922699188824582 0
          0.5846036654926502 0.8113190212811219 0 0.8137593901976382 0.5812019054211437 0
          -0.6454258041133873 -0.7638229712339027 0 0.14714561118011035 0.9891148412143211 0
          0.6686441164963586 -0.7435825747519935 0 0.9548811039010567 0.29698834558396286 0
          -0.9214368820448583 0.3885280844513688 0 0.9697321643337674 0.24417110692411417 0
          0.4837086360064783 -0.8752290874124056 0 -0.8666678200876096 -0.49888564784386297 0
          0.1526792672387075 0.9882757921529047 0 -0.999575557695956 -0.02913253261937029 0
          -0.7174221748328327 0.6966386603240796 0 0.48146445639347624 0.8764656166842681 0
          0.40025235814062216 -0.9164049595036416 0 0.23246097157009737 0.9726057252025028 0
          0.6931385919251718 0.7208043371012623 0 -0.1513202599986289 -0.9884847894196184 0
          <InformationKey name="L2_NORM_RANGE" location="vtkDataArray" length="2">
            <Value index="0">
              1
            </Value>
            <Value index="1">
              1
            </Value>
          </InformationKey>
        </DataArray>
        <DataArray type="Float64" Name="velocity" NumberOfComponents="3" format="ascii" RangeMin="2.98391528750295" RangeMax="65.61664053985334">
          20.472372037415383 -30.489259884928693 0 -7.778161120144524 43.605506408926914 0
          -35.778279556590725 14.318100471258902 0 -2.7267860528004704 -6.306708942777526 0
          -25.56803597993237 0.5919415230237348 0 40.69440930810454 -42.34960265147567 0
          21.390392053252754 11.720491675449018 0 -31.091580543867785 -10.301819378431787 0
          -22.233594277397 35.80993014386058 0 40.8936574712134 11.727908496204755 0
          -31.918129728714472 1.502371966558826 0 32.46317064138093 -14.067556233339687 0
          31.61170207931397 -20.66117562390716 0 -32.788218903188394 -0.7210412736466054 0
          -30.467523066969363 36.43074923190564 0 -29.58028331655805 11.627227611362315 0
          37.80505508071815 -10.753091333426255 0 44.65772551607054 -33.330173144632525 0
          47.18774005931614 6.396489460552942 0 9.836891189866492 -36.87781496106794 0
          6.677739541459459 5.438027088135769 0 -18.951003944933063 -37.93510690561732 0
          23.77908201111339 -25.727634747998636 0 32.285914726045576 -31.45240287607238 0
          -18.732306147503376 38.172541468590836 0 17.42129460906331 23.929755673071398 0
          -43.74567596165927 -36.843843838172035 0 -41.00470913383489 -49.1685554695042 0
          -4.3489588147394045 13.430332075080756 0 2.9762992276979077 -0.21305715242312573 0
          -16.420210149222868 -24.717665071237764 0 -26.63245586108499 -32.68369682188443 0
          9.59810303037343 22.68931438280859 0 37.757309281314306 20.71597266757422 0
          -26.523439665569285 -2.200425364398683 0 -48.17882370239545 24.733119867345934 0
          15.472358145094617 -42.19330576503555 0 -2.7230899171649696 49.647506705142575 0
          3.209752212846098 39.943600631846664 0 27.290092728339346 -29.624030405099575 0
          40.710862227344634 -12.518743865476708 0 34.808888796398136 -17.330075407408792 0
          -17.326333983387784 15.921061981020685 0 8.676498234140595 -45.101679767889145 0
          26.99656655139428 -0.8247828969564566 0 -1.181598492863479 -7.087342925864128 0
          -10.527228461045638 27.645380145270124 0 47.47543864880045 24.850515939083976 0
          13.45020038299144 -42.781974126121774 0 13.33632968921519 2.89206325620421 0
          -20.383234879262602 -17.467213088655853 0 13.111992425538233 49.45054225750374 0
          1.6047826830209004 22.445391370448775 0 -25.442525168919026 -16.766088433362327 0
          24.860911549332883 18.296648546241826 0 18.127137052491975 -42.11576276898946 0
          -4.106371249565804 19.81468592825003 0 -43.2115168522386 -43.085994704941484 0
          2.7042817825837204 -23.795120132132308 0 -1.6624837545658195 -36.91945356486498 0
          -40.55592314206473 -37.96183180819797 0 46.98372058379586 25.62816454897687 0
          -23.182362140209666 22.4905983535036 0 -8.42374893276238 -2.5281598168396826 0
          -44.45585735866184 11.374414308737222 0 -0.9380815156004232 40.44748670579848 0
          43.5214270198436 41.82766196839604 0 -19.617472876146607 29.010177679462174 0
          -27.377259211045168 -5.104813753149479 0 1.0108912986547693 -26.93680745999526 0
          21.18807799653547 48.4452609761332 0 15.521324819791857 -22.733301715898534 0
          -3.0984436752635744 -49.699879474370995 0 -5.357606698271908 47.09441502974741 0
          -19.533649987483585 -28.48909553641595 0 -25.241492794096537 30.645102659141713 0
          -1.3628901407151872 -9.249808436218693 0 -28.437070584076316 4.0252086974848424 0
          22.302423751473526 -21.630608392707323 0 4.286209731170565 25.592468486596516 0
          -16.80227135673981 30.176297340482108 0 35.70724318896097 -48.51082997011254 0
          38.494266527440914 9.308694076898924 0 -41.37827709570729 42.48759424258512 0
          41.371957205314274 48.07567751376408 0 40.00221093710812 44.971458396046486 0
          43.45219546574209 -49.16757290067578 0 27.77940311086799 -47.40411222574361 0
          8.787704962513757 14.978077069606684 0 -17.176354508003442 -38.89206379839693 0
          -37.572734230027905 47.39150589914381 0 3.322947059262674 16.230028184641725 0
          20.82576325094061 -43.12614201683975 0 -29.404442159877867 -6.6570323329381935 0
          -48.88074135310182 -43.07374742736768 0 -15.693819004659524 -18.776991949103287 0
          49.2742614956165 -23.093566379026992 0 35.70662412955289 -14.438908494432013 0
          24.676827977366614 34.48562696853686 0 -28.28613766609157 46.49521791482232 0
          21.219265309149932 48.266786794162286 0 25.989900495501132 -30.673962513745963 0
          -14.741048879365302 -30.369965831724773 0 33.206792723445574 45.25947670903301 0
          26.73700517552618 36.1968809297727 0 -4.433626259916984 -16.731616061562868 0
          33.82599634129042 5.430878965379037 0 -37.91344272052366 -28.781627030961573 0
          -0.8760744559602713 -9.034520229977083 0 25.951148963832622 -14.29357740625877 0
          27.17860558051683 48.15404052238152 0 34.61617221348607 33.462162550860555 0
          -13.28055184508198 -44.93740558320786 0 47.55616001461492 34.25892934866374 0
          36.946038841117556 -42.45015674570037 0 -46.76239316488481 11.393180618063838 0
          23.568028568935404 11.552780427737098 0 16.263007945057282 45.12644264060411 0
          -23.411248530157515 41.93857265065735 0 -38.160345232049345 -18.69342940760771 0
          37.21153998486223 -26.635630373860984 0 30.80584946405935 5.653176675427417 0
          44.35923105765637 0.370346282237378 0 16.64168251311186 -34.7034267378138 0
          47.322877480901255 13.376690736606477 0 -32.1350217035443 -42.58571958176201 0
          -0.5025219679409361 28.59799073613067 0 -3.5320261053794297 38.30316610148137 0
          14.736889949280638 40.32409694969634 0 -49.402638529229115 19.356180838194604 0
          8.508964450503598 -39.46387075781778 0 49.03198966734128 -27.000797471280585 0
          -16.70921662991016 18.938285128010065 0 46.14207459237997 -27.3400906744995 0
          42.424140585792586 37.62461911345025 0 -6.825547086494495 -2.911259141055119 0
          6.210247997996007 33.76154121673389 0 -35.16911208657487 13.927818279591207 0
          49.5593687100304 13.93941034113417 0 -6.0481675260535965 -47.161165000275155 0
          -41.68490984500472 3.0367185203014984 0 28.200151364646487 23.664522522360798 0
          -30.983903256438072 -23.817273645282434 0 -4.775523168997552 -3.9973115200368454 0
          17.36371431475763 -32.304692769073746 0 -31.21691646176371 -40.35131875297581 0
          -17.61253928181918 -32.96735050248542 0 -47.52659271635095 33.064298464373394 0
          -25.51716157275273 -35.79649925661745 0 -34.4558032257712 -19.698927528483058 0
          -46.64276824331557 -9.071061809886274 0 28.312364537561464 -5.662808823633235 0
          -48.25117889494449 -21.421563451189467 0 45.139670111270334 -32.86849758057289 0
          <InformationKey name="L2_NORM_RANGE" location="vtkDataArray" length="2">
            <Value index="0">
              2.9839152875
            </Value>
            <Value index="1">
              65.61664054
            </Value>
          </InformationKey>
        </DataArray>
        <DataArray type="Float64" Name="force" NumberOfComponents="3" format="ascii" RangeMin="0.49999999999999994" RangeMax="0.5">
          -0.4965401178548422 0.0587189182521221 0 0.14165080104503197 -0.47951543308146066 0
          -0.3956170417572396 -0.30575669456489507 0 0.08399010788983317 0.4928951833571253 0
          -0.48505070136659584 0.12134997776585477 0 -0.06601535354988083 0.49562281333256264 0
          0.45430106946426707 0.20883136326620858 0 0.4364092840948065 0.24402241035580824 0
          0.4825458447591267 -0.13095612893523073 0 -0.2593165092541272 -0.42749847722331613 0
          -0.34775298648052316 0.35926015698081115 0 -0.4935779840896999 -0.07987974475389854 0
          -0.2705373992804934 -0.42048723594248005 0 -0.11884005585951928 0.4856717421502988 0
          0.26991043741919873 0.42088995684403874 0 0.4596207977428934 -0.19684695141704958 0
          -0.4787387024627952 -0.14425413257248215 0 -0.45751605908545695 0.20169049476589787 0
          0.4960860790493369 0.06243878741179291 0 -0.47347463593486994 -0.16069153408422726 0
          0.3266078906433272 0.3785859027612048 0 0.2846743661169837 -0.4110480571367459 0
          -0.4711175832030695 -0.167476036485519 0 0.4068102918483846 0.29069810189650735 0
          -0.45234899044163196 -0.21302673739799974 0 -0.44018599402913267 0.23714192092623437 0
          0.4787956961754462 -0.14406485110487496 0 0.28499507930668655 0.41082575962441237 0
          -0.4696481003535271 -0.1715536704192695 0 -0.3039936245213595 -0.39697339488984235 0
          0.3477020853416527 0.3593094207630327 0 -0.4950182721702947 -0.0704053280479256 0
          -0.4981837072091212 0.04257926574492072 0 -0.04956056765824756 0.49753768714881513 0
          0.49471820449667214 -0.0724837784582792 0 0.12825331511626273 0.4832712356034535 0
          0.3077480163836739 0.3940699917678508 0 -0.39559702752009274 -0.30578258913363104 0
          -0.48855186948194324 -0.10638172223506391 0 0.48692171966382447 0.11361003001330454 0
          -0.06024848982358384 0.49635684690953696 0 0.4195437592887279 -0.2719982243358989 0
          -0.048827552261473915 -0.4976101587991879 0 -0.46650108858894157 -0.17993536157557388 0
          0.3813836813453136 0.3233364928422035 0 -0.4102691414703428 0.28579578645807185 0
          0.2171587229354005 -0.45037993855528907 0 -0.49762469471361614 -0.04867918663227992 0
          -0.4107339483711514 -0.2851273814551039 0 -0.18279360288174418 0.4653885459973324 0
          0.39987717999567646 -0.30016369020703587 0 0.49704099855384415 -0.05431616478174347 0
          0.4921901822440286 -0.08802740767846073 0 0.06167835684194515 0.49618119704123986 0
          -0.24876130660117762 0.4337255034443731 0 -0.4883727136047239 0.10720117819482357 0
          -0.39989248844136616 -0.30014329525773487 0 -0.20510496466310582 0.45599556299436306 0
          -0.23998581071727282 -0.43864200739825787 0 0.4631359691870868 -0.18842790145076113 0
          -0.4917501030181447 -0.09045350287105558 0 -0.12287711511127977 -0.48466608565271957 0
          -0.36979911038118846 -0.33652432001458915 0 0.49175623719480754 -0.09042014808660838 0
          0.28717933562659964 -0.4093018802657335 0 -0.491418403320798 0.09223856502373357 0
          0.34751844113449687 -0.3594870415904435 0 -0.4789333814062083 -0.14360646285879833 0
          -0.1663919346176654 0.4715015631937932 0 0.4976384602637046 -0.048538261880389635 0
          0.1670738773371599 0.4712603521531677 0 -0.10902408433414426 0.4879690041745494 0
          0.06771648963399757 0.49539325493152275 0 -0.18127417584448072 0.4659824816148181 0
          -0.0692117426778402 -0.4951865655240421 0 -0.4946563115179057 0.07290496194019065 0
          -0.4942306526953484 0.07573679380809525 0 0.16455863568035475 -0.47214452810873525 0
          -0.3428823716471089 0.36391163654609054 0 -0.014995243137849956 -0.49977509209967313 0
          -0.04553238334016398 0.49792248600295647 0 0.4364858487338013 -0.24388543182226594 0
          -0.33673623821505255 -0.3696061496685024 0 -0.46444436087895896 -0.1851794687532485 0
          -0.4609308906663578 0.19375942307283564 0 0.011819364005062106 0.4998602831137075 0
          -0.49743841146089124 -0.05054727295576945 0 -0.22321837009051457 -0.4474075985654849 0
          0.4236018753601351 0.26563405502942683 0 0.2653643600129055 0.4237708772850502 0
          0.35221321061618766 -0.35488850963004853 0 -0.0551256647057946 -0.49695186999421215 0
          -0.44657450907986307 -0.2248804300958162 0 -0.10751695655885753 -0.48830329105210907 0
          0.0054569320931827274 0.4999702210053419 0 0.49502847891838114 -0.07033352728076328 0
          -0.4167336440603829 0.2762844004068165 0 0.49861428810020336 -0.037199350832069364 0
          -0.411597977596378 -0.28387867978869336 0 0.4168494366524616 -0.27610966510161394 0
          -0.32534680840524755 0.3796701914300346 0 0.30669119790121196 -0.39489303504863144 0
          -0.43684446669723387 -0.24324249611449342 0 0.49665788411884104 0.0577143495380123 0
          -0.21368926972800412 0.4520363879192828 0 -0.46568632544899635 0.18203364054430013 0
          0.4961762740654204 0.06171794758866177 0 0.31320103888503564 -0.38975005996322104 0
          -0.25458121269836 -0.4303352253081688 0 -0.49770935118255616 -0.04780587563719529 0
          0.2952909431148199 0.4034888584761173 0 0.18348903679629788 -0.4651147959112533 0
          0.17954173784540078 -0.46665272352302134 0 0.49794892408044744 -0.04524233644635073 0
          -0.2691715161182047 -0.42136290167814616 0 -0.14393245190703066 -0.4788355138124472 0
          -0.4999833618532115 -0.004078954518076138 0 -0.48746036126324577 -0.11127621577455767 0
          -0.4590205881458339 0.1982425273705234 0 0.2122782095954414 -0.4527007419156212 0
          0.48423986283858145 0.12454619720437796 0 -0.24087840659440626 -0.4381524771544033 0
          0.4689957620909878 -0.17332909490530876 0 -0.1241035978680701 0.48435348351818464 0
          0.2131906388707476 -0.4522717673013456 0 -0.22880335385879721 -0.44457735576946117 0
          -0.4996430099414384 -0.018890807729149136 0 0.39008869084715064 -0.3127791765337906 0
          -0.28057487268205816 0.41385715025772707 0 -0.41838750091356014 0.2737734448030081 0
          0.39960729721628135 0.30052289099417795 0 0.369629242634213 0.3367108893244442 0
          0.49888757211810103 0.0333345224370555 0 -0.3442248725751563 0.36264202335170337 0
          -0.43031217928103177 0.25462016487782185 0 -0.4906710400800451 0.0961349594412291 0
          0.2923018327463251 0.40565951064056094 0 0.4068796950988191 0.29060095271057185 0
          -0.3227129020566937 -0.3819114856169514 0 0.07357280559005518 0.49455742060716057 0
          0.3343220582481793 -0.37179128737599676 0 0.47744055195052837 0.14849417279198143 0
          -0.46071844102242915 0.1942640422256844 0 0.4848660821668837 0.12208555346205709 0
          0.24185431800323914 -0.4376145437062028 0 -0.4333339100438048 -0.24944282392193148 0
          0.07633963361935375 0.49413789607645237 0 -0.499787778847978 -0.014566266309685145 0
          -0.35871108741641633 0.3483193301620398 0 0.24073222819673812 0.4382328083421341 0
          0.20012617907031108 -0.4582024797518208 0 0.11623048578504869 0.4863028626012514 0
          0.3465692959625859 0.3604021685506312 0 -0.07566012999931444 -0.4942423947098092 0
          <InformationKey name="L2_NORM_RANGE" location="vtkDataArray" length="2">
            <Value index="0">
              0.5
            </Value>
            <Value index="1">
              0.5
            </Value>
          </InformationKey>
        </DataArray>
        <DataArray type="Float64" Name="radius" format="ascii" RangeMin="1" RangeMax="1">
          1 1 1 1 1 1
          1 1 1 1 1 1
          1 1 1 1 1 1
          1 1 1 1 1 1
          1 1 1 1 1 1
          1 1 1 1 1 1
          1 1 1 1 1 1
          1 1 1 1 1 1
          1 1 1 1 1 1
          1 1 1 1 1 1
          1 1 1 1 1 1
          1 1 1 1 1 1
          1 1 1 1 1 1
          1 1 1 1 1 1
          1 1 1 1 1 1
          1 1 1 1 1 1
          1 1 1 1 1 1
          1 1 1 1 1 1
          1 1 1 1 1 1
          1 1 1 1 1 1
          1 1 1 1 1 1
          1 1 1 1 1 1
          1 1 1 1 1 1
          1 1 1 1 1 1
          1 1 1 1 1 1
          1 1 1 1
        </DataArray>
      </PointData>
      <CellData>
      </CellData>
      <Points>
        <DataArray type="Float32" Name="Points" NumberOfComponents="3" format="ascii" RangeMin="2.864279633012806" RangeMax="67.32012279908494">
          -37.74718475341797 33.73748016357422 0 46.88048553466797 -28.009307861328125 0
          -19.581666946411133 4.49020528793335 0 -31.216054916381836 49.90528106689453 0
          48.82669448852539 46.346012115478516 0 22.334423065185547 48.501068115234375 0
          -39.81201171875 29.44723129272461 0 -19.690155029296875 -50.347957611083984 0
          -38.822444915771484 13.244426727294922 0 37.39936828613281 0.8512887954711914 0
          29.87208366394043 -13.607344627380371 0 -28.815448760986328 17.918018341064453 0
          -10.611798286437988 24.044086456298828 0 -3.3534059524536133 -7.607066631317139 0
          -32.430721282958984 -19.65921401977539 0 29.0362606048584 -18.792261123657227 0
          37.24964904785156 -35.30347442626953 0 48.864295959472656 31.106430053710938 0
          -37.73486328125 26.21998405456543 0 -1.181321382522583 15.652604103088379 0
          -38.147159576416016 -28.21598243713379 0 -44.90898895263672 -46.05714797973633 0
          -8.783663749694824 -4.192895889282227 0 -1.5397039651870728 29.75507926940918 0
          41.81246566772461 30.556835174560547 0 20.89041519165039 -49.71495056152344 0
          20.758607864379883 14.764198303222656 0 -4.203673839569092 26.94915199279785 0
          7.824671745300293 37.85327911376953 0 30.72165870666504 -47.831417083740234 0
          33.23849868774414 32.80343246459961 0 43.67557907104492 -8.57169246673584 0
          -7.786519527435303 7.578408718109131 0 -34.14178466796875 26.889816284179688 0
          -26.0672550201416 31.6408748626709 0 49.435462951660156 -17.726720809936523 0
          -20.085542678833008 -49.27149200439453 0 -28.969823837280273 40.918209075927734 0
          34.44755935668945 45.80396270751953 0 27.709726333618164 49.182289123535156 0
          -43.36246871948242 29.60585594177246 0 9.428336143493652 23.831756591796875 0
          19.257173538208008 18.20244026184082 0 -10.441258430480957 5.824176788330078 0
          -29.720050811767578 2.181501626968384 0 -9.450010299682617 -14.60434341430664 0
          9.465587615966797 -13.69764518737793 0 46.53947830200195 -34.973655700683594 0
          -10.646411895751953 -11.558633804321289 0 22.41571807861328 -11.66303539276123 0
          42.4969367980957 -6.385977268218994 0 35.317779541015625 12.045730590820312 0
          -37.15037536621094 -2.6741015911102295 0 -15.484955787658691 3.6717114448547363 0
          21.68757438659668 48.67089080810547 0 21.872676849365234 41.87371826171875 0
          0.914146900177002 6.013096809387207 0 0.6783174276351929 -3.6192593574523926 0
          4.833303928375244 -5.548495292663574 0 34.78425979614258 11.068367958068848 0
          0.6314752101898193 47.62151336669922 0 -47.008121490478516 47.672828674316406 0
          -13.984358787536621 17.431427001953125 0 -15.140828132629395 35.717201232910156 0
          -45.459415435791016 15.36279010772705 0 24.515756607055664 -36.09066390991211 0
          48.110511779785156 -40.45237350463867 0 -21.86627960205078 30.297786712646484 0
          -42.43111801147461 12.945314407348633 0 -48.678001403808594 18.59902000427246 0
          2.9492547512054443 -5.867369174957275 0 -30.00425910949707 -35.42635726928711 0
          -11.095739364624023 26.678157806396484 0 -46.615413665771484 -24.464693069458008 0
          1.2149666547775269 33.38358688354492 0 47.350990295410156 32.2645378112793 0
          -19.56686782836914 -43.84088134765625 0 -24.379030227661133 3.610501527786255 0
          39.46897506713867 -15.111326217651367 0 -47.33359909057617 -33.493980407714844 0
          37.622398376464844 -29.657800674438477 0 -23.285125732421875 -0.6538391709327698 0
          -27.547914505004883 -0.45441460609436035 0 44.42698287963867 15.45037841796875 0
          26.458864212036133 -6.289388656616211 0 5.114125728607178 -44.39823913574219 0
          -17.027759552001953 -8.677751541137695 0 40.8773078918457 31.279300689697266 0
          -24.84359359741211 -36.25766372680664 0 -1.4489636421203613 -11.782946586608887 0
          21.654830932617188 -21.458921432495117 0 11.928569793701172 31.586360931396484 0
          -18.353139877319336 -11.461092948913574 0 -14.8895902633667 31.339208602905273 0
          17.752065658569336 -12.448492050170898 0 -4.421444892883301 -19.48881721496582 0
          40.4224967956543 -1.3367278575897217 0 25.752973556518555 -38.258792877197266 0
          -10.106246948242188 37.15742874145508 0 -13.140604019165039 41.97771453857422 0
          5.040766716003418 -36.06547927856445 0 -29.66803741455078 44.92512512207031 0
          49.993080139160156 -26.74770164489746 0 -48.325706481933594 -11.451603889465332 0
          28.260652542114258 -2.9924893379211426 0 4.3466668128967285 -48.48435592651367 0
          39.713531494140625 -30.2127685546875 0 38.61629104614258 -5.635634422302246 0
          -34.634761810302734 -25.619098663330078 0 29.13763427734375 -2.649074077606201 0
          -41.10953903198242 14.753175735473633 0 13.912135124206543 7.860511302947998 0
          21.86297035217285 -14.83012580871582 0 18.501201629638672 20.903291702270508 0
          -34.02411651611328 -36.39374923706055 0 -5.2986321449279785 -46.324134826660156 0
          29.9962215423584 -33.15122604370117 0 32.6297492980957 -16.772132873535156 0
          15.84329891204834 -7.982276916503906 0 27.678937911987305 -38.548095703125 0