<?xml version="1.0"?>
<VTKFile type="PolyData" version="0.1" byte_order="LittleEndian" header_type="UInt32" compressor="vtkZLibDataCompressor">
  <PolyData>
    <Piece NumberOfPoints="154" NumberOfVerts="0" NumberOfLines="0" NumberOfStrips="0" NumberOfPolys="0">
      <PointData>
        <DataArray type="Int32" Name="id" format="ascii" RangeMin="0" RangeMax="153">
          0 1 2 3 4 5
          6 7 8 9 10 11
          12 13 14 15 16 17
          18 19 20 21 22 23
          24 25 26 27 28 29
          30 31 32 33 34 35
          36 37 38 39 40 41
          42 43 44 45 46 47
          48 49 50 51 52 53
          54 55 56 57 58 59
          60 61 62 63 64 65
          66 67 68 69 70 71
          72 73 74 75 76 77
          78 79 80 81 82 83
          84 85 86 87 88 89
          90 91 92 93 94 95
          96 97 98 99 100 101
          102 103 104 105 106 107
          108 109 110 111 112 113
          114 115 116 117 118 119
          120 121 122 123 124 125
          126 127 128 129 130 131
          132 133 134 135 136 137
          138 139 140 141 142 143
          144 145 146 147 148 149
          150 151 152 153
        </DataArray>
        <DataArray type="Float64" Name="director" NumberOfComponents="3" format="ascii" RangeMin="0.9999999999999999" RangeMax="1">
          -0.9997992527808097 -0.020036320493907054 0 0.3604798330078287 -0.9327670073467693 0
          -0.736055598161576 -0.6769210858106022 0 0.3309537813522853 0.9436469650290958 0
          -0.9999541826058278 0.009572496493118183 0 -0.246404244370183 0.9691671415996104 0
          0.7936610162921779 0.6083602478943436 0 0.895978667555509 0.44409709218306603 0
          0.9794673081802002 -0.20160305604388232 0 -0.44807613887093894 -0.8939953991909081 0
          -0.6885848129589323 0.725155814540787 0 -0.9893634053799064 -0.14546495143186525 0
          -0.544518191050755 -0.8387490325567079 0 -0.2810931051533451 0.9596805021647832 0
          0.7569840133697915 0.6534333963783634 0 0.8685239369391146 -0.4956472243075522 0
          -0.9337104395356453 -0.3580290701914471 0 -0.9233444880156243 0.3839725985681331 0
          0.9993476544018506 0.036114618113990214 0 -0.9689938675773261 -0.24708477208750726 0
          0.6819064568192514 0.731439391985566 0 0.45127503962494386 -0.8923849161721109 0
          -0.8767809444144344 -0.48088998275253403 0 0.8285699270810186 0.5598855918283266 0
          -0.8951111072085859 -0.4458431402991634 0 -0.8727951922694206 0.4880866238193638 0
          0.9555635266248402 -0.29478525503202885 0 0.5379082999088506 0.8430033575788237 0
          -0.8623399042932081 -0.506329822806815 0 -0.5839220444593619 -0.8118097350946212 0
          0.7436547870478166 0.6685638022663705 0 -0.9149458342956318 -0.4035766597625169 0
          -0.9997473246336798 -0.02247858731770515 0 -0.20228465961439254 0.9793267669601854 0
          0.9892720895013184 -0.1460846772721062 0 0.3070928779087 0.9516795491854138 0
          0.5818643196323088 0.8132858744247501 0 -0.7897060056325163 -0.6134854722549966 0
          -0.9817127304591701 -0.19036836621245892 0 0.9916976433975935 0.12859153968927978 0
          -0.11009796242278586 0.9939207406379801 0 0.8762041707606889 -0.48194009082205796 0
          -0.2171832488748736 -0.9761308500442729 0 -0.912469175490965 -0.4091454555275405 0
          0.6742386453069927 0.7385135402784374 0 -0.8155841150446562 0.5786385324940131 0
          0.4121547840196053 -0.9111138425080328 0 -0.9979670867127475 -0.06373141955167425 0
          -0.8965590584012316 -0.44292420886501216 0 -0.3560441956454786 0.934469117064424 0
          0.8288507897035112 -0.5594697207247822 0 0.9947438258612007 -0.10239492619764526 0
          0.9892172470947435 -0.14645558388227245 0 0.2793486056489728 0.9601897502691719 0
          -0.45326700877364484 0.8913747914078525 0 -0.9564267437997478 0.2919724023681204 0
          -0.8765108338824289 -0.4813821331195509 0 -0.4350804742753188 0.9003915708758959 0
          -0.4634832294268862 -0.8861056912355457 0 0.933843675167648 -0.3576814090072061 0
          -0.9994856159052511 0.032070291525035925 0 -0.26037483865455774 -0.9655076091857656 0
          -0.5294268444062822 -0.8483555955034459 0 0.9811361276325746 -0.1933181291399136 0
          0.5605684478930948 -0.828108093926588 0 -0.99841916691508 -0.05620646881451895 0
          0.7811679517119188 -0.6243209360723099 0 -0.915300649266922 -0.4027713016732338 0
          -0.21769399702940906 0.9760170713964791 0 0.9709262817858316 -0.23937868605525398 0
          0.6178798322012038 0.7862725436888994 0 -0.26863835996283986 0.9632411076965495 0
          0.09764516676015413 0.9952212926823771 0 -0.42012250625744224 0.9074673987179734 0
          -0.20611740534252715 -0.9785272685085808 0 -0.9987036826946318 0.05090141620996558 0
          -0.9870172031174163 0.16061457203589297 0 0.477988497769472 -0.8783660945187283 0
          -0.6550043144287409 0.7556251372735923 0 -0.031486784127436544 -0.9995041682881128 0
          0.06390720136861944 0.9979558455228521 0 0.9237735626928347 -0.3829391660169894 0
          -0.6343867822386586 -0.7730157893089123 0 -0.8493275986087577 -0.5278661101467691 0
          -0.9613885527059515 0.27519456885257754 0 0.12149933263191502 0.9925915132470151 0
          -0.9952237254696867 0.09762036807059103 0 -0.527416828834005 -0.8496066670305041 0
          0.8498504618586081 0.5270239012404566 0 0.4529182069358041 0.8915520724142006 0
          0.7270379351612738 -0.6865972916028955 0 -0.08080124696718483 -0.9967302335579813 0
          -0.8756365932752216 -0.482970554503444 0 -0.002947943844550189 -0.9999956548041044 0
          0.0842898821357125 0.9964412756251859 0 0.9817852907065869 -0.18999379714133474 0
          -0.8022010338936822 0.5970540186782995 0 0.9999875510542042 0.004989763182275849 0
          -0.8251912363162727 -0.5648534531246326 0 0.8282589458499879 -0.560345535022335 0
          -0.5388108142618006 0.8424267958906195 0 0.6896122880240063 -0.7241787708889946 0
          -0.8106248785130272 -0.5855658001759835 0 0.982258885113581 0.18752995124892693 0
          -0.2391761849134052 0.9709761853775141 0 -0.9183432597304019 0.3957848624034776 0
          0.9992016584867931 0.03995054038735921 0 0.588742338539417 -0.8083207648026484 0
          -0.5257925539246171 -0.8506128321612769 0 -0.9888986239162061 -0.1485917616041818 0
          0.5549489696313108 0.8318843916705894 0 0.39483986909912233 -0.9187499538883188 0
          0.1491822026337839 -0.9888097240709826 0 0.9644017095575216 -0.2644415674634563 0
          -0.4808676714669434 -0.8767931811652961 0 -0.3138926345298083 -0.9494584846047436 0
          -0.9997629353726534 0.021773218757354978 0 -0.9418539479911744 -0.3360225299789259 0
          -0.9035058571223039 0.42857574143398613 0 0.5690228092462409 -0.8223217390763278 0
          0.9726110480600342 0.23243869985775126 0 -0.40623970960960776 -0.9137665447674814 0
          0.9521388745354449 -0.3056657710610991 0 -0.2738230701472896 0.9617800820640405 0
          0.3206073306375025 -0.9472121935139428 0 -0.5713987660529799 -0.820672559644303 0
          -0.9963343721371891 0.08554425111013036 0 0.7161776897304444 -0.6979179871104938 0
          -0.49684944456226154 0.8678367527583585 0 -0.8131053771117811 0.5821165224522563 0
          0.892066841757211 0.45190347402660574 0 0.6155759733092192 0.7880775476337385 0
          0.9814687075007914 0.1916224835365774 0 -0.6474510073958842 0.762107074512535 0
          -0.7458300063598594 0.6661363235954425 0 -0.9262055780386693 0.37701886850667615 0
          0.7276646388956722 0.6859330676537113 0 0.8383625407268368 0.5451130619477421 0
          -0.6710071722748744 -0.7414508579505975 0 0.01864678228391107 0.9998261336404727 0
          0.7523280415667988 -0.6587886746690969 0 0.9295747800025849 0.36863359638419557 0
          -0.8847704895256873 0.4660270173117389 0 0.9860965331544774 0.16617348555266154 0
          0.5726458914821636 -0.8198028317641981 0 -0.801963499223586 -0.597373037484168 0
          0.06691226562579165 0.9977588630069009 0 -0.98732750107115 -0.1586959534096519 0
          -0.7186412267633301 0.6953810374148091 0 0.3229588655621541 0.9464130024227301 0
          0.5557932194475338 -0.8313205742769425 0 0.2789339877689176 0.9603102782264331 0
          0.7054664161531796 0.7087433496548583 0 -0.05488063352225445 -0.9984929223906377 0
          <InformationKey name="L2_NORM_RANGE" location="vtkDataArray" length="2">
            <Value index="0">
              1
            </Value>
            <Value index="1">
              1
            </Value>
          </InformationKey>
        </DataArray>
        <DataArray type="Float64" Name="velocity" NumberOfComponents="3" format="ascii" RangeMin="2.98391528750295" RangeMax="65.61664053985334">
          20.472372037415383 -30.489259884928693 0 -7.778161120144524 43.605506408926914 0
          -35.778279556590725 14.318100471258902 0 -2.7267860528004704 -6.306708942777526 0
          -25.56803597993237 0.5919415230237348 0 40.69440930810454 -42.34960265147567 0
          21.390392053252754 11.720491675449018 0 -31.091580543867785 -10.301819378431787 0
          -22.233594277397 35.80993014386058 0 40.8936574712134 11.727908496204755 0
          -31.918129728714472 1.502371966558826 0 32.46317064138093 -14.067556233339687 0
          31.61170207931397 -20.66117562390716 0 -32.788218903188394 -0.7210412736466054 0
          -30.467523066969363 36.43074923190564 0 -29.58028331655805 11.627227611362315 0
          37.80505508071815 -10.753091333426255 0 44.65772551607054 -33.330173144632525 0
          47.18774005931614 6.396489460552942 0 9.836891189866492 -36.87781496106794 0
          6.677739541459459 5.438027088135769 0 -18.951003944933063 -37.93510690561732 0
          23.77908201111339 -25.727634747998636 0 32.285914726045576 -31.45240287607238 0
          -18.732306147503376 38.172541468590836 0 17.42129460906331 23.929755673071398 0
          -43.74567596165927 -36.843843838172035 0 -41.00470913383489 -49.1685554695042 0
          -4.3489588147394045 13.430332075080756 0 2.9762992276979077 -0.21305715242312573 0
          -16.420210149222868 -24.717665071237764 0 -26.63245586108499 -32.68369682188443 0
          9.59810303037343 22.68931438280859 0 37.757309281314306 20.71597266757422 0
          -26.523439665569285 -2.200425364398683 0 -48.17882370239545 24.733119867345934 0
          15.472358145094617 -42.19330576503555 0 -2.7230899171649696 49.647506705142575 0
          3.209752212846098 39.943600631846664 0 27.290092728339346 -29.624030405099575 0
          40.710862227344634 -12.518743865476708 0 34.808888796398136 -17.330075407408792 0
          -17.326333983387784 15.921061981020685 0 8.676498234140595 -45.101679767889145 0
          26.99656655139428 -0.8247828969564566 0 -1.181598492863479 -7.087342925864128 0
          -10.527228461045638 27.645380145270124 0 47.47543864880045 24.850515939083976 0
          13.45020038299144 -42.781974126121774 0 13.33632968921519 2.89206325620421 0
          -20.383234879262602 -17.467213088655853 0 13.111992425538233 49.45054225750374 0
          1.6047826830209004 22.445391370448775 0 -25.442525168919026 -16.766088433362327 0
          24.860911549332883 18.296648546241826 0 18.127137052491975 -42.11576276898946 0
          -4.106371249565804 19.81468592825003 0 -43.2115168522386 -43.085994704941484 0
          2.7042817825837204 -23.795120132132308 0 -1.6624837545658195 -36.91945356486498 0
          -40.55592314206473 -37.96183180819797 0 46.98372058379586 25.62816454897687 0
          -23.182362140209666 22.4905983535036 0 -8.42374893276238 -2.5281598168396826 0
          -44.45585735866184 11.374414308737222 0 -0.9380815156004232 40.44748670579848 0
          43.5214270198436 41.82766196839604 0 -19.617472876146607 29.010177679462174 0
          -27.377259211045168 -5.104813753149479 0 1.0108912986547693 -26.93680745999526 0
          21.18807799653547 48.4452609761332 0 15.521324819791857 -22.733301715898534 0
          -3.0984436752635744 -49.699879474370995 0 -5.357606698271908 47.09441502974741 0
          -19.533649987483585 -28.48909553641595 0 -25.241492794096537 30.645102659141713 0
          -1.3628901407151872 -9.249808436218693 0 -28.437070584076316 4.0252086974848424 0
          22.302423751473526 -21.630608392707323 0 4.286209731170565 25.592468486596516 0
          -16.80227135673981 30.176297340482108 0 35.70724318896097 -48.51082997011254 0
          38.494266527440914 9.308694076898924 0 -41.37827709570729 42.48759424258512 0
          41.371957205314274 48.07567751376408 0 40.00221093710812 44.971458396046486 0
          43.45219546574209 -49.16757290067578 0 27.77940311086799 -47.40411222574361 0
          8.787704962513757 14.978077069606684 0 -17.176354508003442 -38.89206379839693 0
          -37.572734230027905 47.39150589914381 0 3.322947059262674 16.230028184641725 0
          20.82576325094061 -43.12614201683975 0 -29.404442159877867 -6.6570323329381935 0
          -48.88074135310182 -43.07374742736768 0 -15.693819004659524 -18.776991949103287 0
          49.2742614956165 -23.093566379026992 0 35.70662412955289 -14.438908494432013 0
          24.676827977366614 34.48562696853686 0 -28.28613766609157 46.49521791482232 0
          21.219265309149932 48.266786794162286 0 25.989900495501132 -30.673962513745963 0
          -14.741048879365302 -30.369965831724773 0 33.206792723445574 45.25947670903301 0
          26.73700517552618 36.1968809297727 0 -4.433626259916984 -16.731616061562868 0
          33.82599634129042 5.430878965379037 0 -37.91344272052366 -28.781627030961573 0
          -0.8760744559602713 -9.034520229977083 0 25.951148963832622 -14.29357740625877 0
          27.17860558051683 48.15404052238152 0 34.61617221348607 33.462162550860555 0
          -13.28055184508198 -44.93740558320786 0 47.55616001461492 34.25892934866374 0
          36.946038841117556 -42.45015674570037 0 -46.76239316488481 11.393180618063838 0
          23.568028568935404 11.552780427737098 0 16.263007945057282 45.12644264060411 0
          -23.411248530157515 41.93857265065735 0 -38.160345232049345 -18.69342940760771 0
          37.21153998486223 -26.635630373860984 0 30.80584946405935 5.653176675427417 0
          44.35923105765637 0.370346282237378 0 16.64168251311186 -34.7034267378138 0
          47.322877480901255 13.376690736606477 0 -32.1350217035443 -42.58571958176201 0
          -0.5025219679409361 28.59799073613067 0 -3.5320261053794297 38.30316610148137 0
          14.736889949280638 40.32409694969634 0 -49.402638529229115 19.356180838194604 0
          8.508964450503598 -39.46387075781778 0 49.03198966734128 -27.000797471280585 0
          -16.70921662991016 18.938285128010065 0 46.14207459237997 -27.3400906744995 0
          42.424140585792586 37.62461911345025 0 -6.825547086494495 -2.911259141055119 0
          6.210247997996007 33.76154121673389 0 -35.16911208657487 13.927818279591207 0
          49.5593687100304 13.93941034113417 0 -6.0481675260535965 -47.161165000275155 0
          -41.68490984500472 3.0367185203014984 0 28.200151364646487 23.664522522360798 0
          -30.983903256438072 -23.817273645282434 0 -4.775523168997552 -3.9973115200368454 0
          17.36371431475763 -32.304692769073746 0 -31.21691646176371 -40.35131875297581 0
          -17.61253928181918 -32.96735050248542 0 -47.52659271635095 33.064298464373394 0
          -25.51716157275273 -35.79649925661745 0 -34.4558032257712 -19.698927528483058 0
          -46.64276824331557 -9.071061809886274 0 28.312364537561464 -5.662808823633235 0
          -48.25117889494449 -21.421563451189467 0 45.139670111270334 -32.86849758057289 0
          <InformationKey name="L2_NORM_RANGE" location="vtkDataArray" length="2">
            <Value index="0">
              2.9839152875
            </Value>
            <Value index="1">
              65.61664054
            </Value>
          </InformationKey>
        </DataArray>
        <DataArray type="Float64" Name="force" NumberOfComponents="3" format="ascii" RangeMin="0.49999999999999994" RangeMax="0.5">
          -0.49989962639040486 -0.010018160246953527 0 0.18023991650391435 -0.46638350367338466 0
          -0.368027799080788 -0.3384605429053011 0 0.16547689067614266 0.4718234825145479 0
          -0.4999770913029139 0.004786248246559092 0 -0.1232021221850915 0.4845835707998052 0
          0.39683050814608894 0.3041801239471718 0 0.4479893337777545 0.22204854609153302 0
          0.4897336540901001 -0.10080152802194116 0 -0.22403806943546947 -0.44699769959545405 0
          -0.34429240647946613 0.3625779072703935 0 -0.4946817026899532 -0.07273247571593262 0
          -0.2722590955253775 -0.4193745162783539 0 -0.14054655257667256 0.4798402510823916 0
          0.37849200668489574 0.3267166981891817 0 0.4342619684695573 -0.2478236121537761 0
          -0.4668552197678226 -0.17901453509572354 0 -0.46167224400781215 0.19198629928406655 0
          0.4996738272009253 0.018057309056995107 0 -0.48449693378866304 -0.12354238604375363 0
          0.3409532284096257 0.365719695992783 0 0.22563751981247193 -0.44619245808605545 0
          -0.4383904722072172 -0.24044499137626701 0 0.4142849635405093 0.2799427959141633 0
          -0.44755555360429294 -0.2229215701495817 0 -0.4363975961347103 0.2440433119096819 0
          0.4777817633124201 -0.14739262751601442 0 0.2689541499544253 0.42150167878941186 0
          -0.43116995214660403 -0.2531649114034075 0 -0.29196102222968096 -0.4059048675473106 0
          0.3718273935239083 0.33428190113318523 0 -0.4574729171478159 -0.20178832988125844 0
          -0.4998736623168399 -0.011239293658852576 0 -0.10114232980719627 0.4896633834800927 0
          0.4946360447506592 -0.0730423386360531 0 0.15354643895435 0.4758397745927069 0
          0.2909321598161544 0.40664293721237504 0 -0.3948530028162581 -0.3067427361274983 0
          -0.49085636522958503 -0.09518418310622946 0 0.49584882169879674 0.06429576984463989 0
          -0.05504898121139293 0.49696037031899004 0 0.43810208538034445 -0.24097004541102898 0
          -0.1085916244374368 -0.48806542502213646 0 -0.4562345877454825 -0.20457272776377025 0
          0.33711932265349637 0.3692567701392187 0 -0.4077920575223281 0.28931926624700655 0
          0.20607739200980266 -0.4555569212540164 0 -0.49898354335637374 -0.03186570977583712 0
          -0.4482795292006158 -0.22146210443250608 0 -0.1780220978227393 0.467234558532212 0
          0.4144253948517556 -0.2797348603623911 0 0.49737191293060035 -0.05119746309882263 0
          0.49460862354737173 -0.07322779194113622 0 0.1396743028244864 0.48009487513458593 0
          -0.22663350438682242 0.44568739570392624 0 -0.4782133718998739 0.1459862011840602 0
          -0.43825541694121445 -0.24069106655977546 0 -0.2175402371376594 0.45019578543794797 0
          -0.2317416147134431 -0.44305284561777286 0 0.466921837583824 -0.17884070450360304 0
          -0.49974280795262555 0.016035145762517963 0 -0.13018741932727887 -0.4827538045928828 0
          -0.2647134222031411 -0.42417779775172293 0 0.4905680638162873 -0.0966590645699568 0
          0.2802842239465474 -0.414054046963294 0 -0.49920958345754 -0.028103234407259474 0
          0.3905839758559594 -0.31216046803615494 0 -0.457650324633461 -0.2013856508366169 0
          -0.10884699851470453 0.48800853569823954 0 0.4854631408929158 -0.11968934302762699 0
          0.3089399161006019 0.3931362718444497 0 -0.13431917998141993 0.48162055384827474 0
          0.04882258338007706 0.49761064634118857 0 -0.21006125312872112 0.4537336993589867 0
          -0.10305870267126357 -0.4892636342542904 0 -0.4993518413473159 0.02545070810498279 0
          -0.4935086015587081 0.08030728601794648 0 0.238994248884736 -0.43918304725936413 0
          -0.3275021572143704 0.37781256863679613 0 -0.015743392063718272 -0.4997520841440564 0
          0.03195360068430972 0.49897792276142605 0 0.46188678134641736 -0.1914695830084947 0
          -0.3171933911193293 -0.3865078946544562 0 -0.42466379930437886 -0.26393305507338455 0
          -0.48069427635297574 0.13759728442628877 0 0.06074966631595751 0.49629575662350756 0
          -0.49761186273484337 0.048810184035295516 0 -0.2637084144170025 -0.42480333351525207 0
          0.42492523092930407 0.2635119506202283 0 0.22645910346790205 0.4457760362071003 0
          0.3635189675806369 -0.34329864580144775 0 -0.04040062348359241 -0.49836511677899065 0
          -0.4378182966376108 -0.241485277251722 0 -0.0014739719222750945 -0.4999978274020522 0
          0.04214494106785625 0.49822063781259296 0 0.49089264535329347 -0.09499689857066737 0
          -0.4011005169468411 0.2985270093391498 0 0.4999937755271021 0.0024948815911379246 0
          -0.41259561815813633 -0.2824267265623163 0 0.41412947292499397 -0.2801727675111675 0
          -0.2694054071309003 0.42121339794530976 0 0.34480614401200316 -0.3620893854444973 0
          -0.4053124392565136 -0.29278290008799174 0 0.4911294425567905 0.09376497562446347 0
          -0.1195880924567026 0.48548809268875703 0 -0.45917162986520094 0.1978924312017388 0
          0.49960082924339655 0.019975270193679603 0 0.2943711692697085 -0.4041603824013242 0
          -0.26289627696230855 -0.42530641608063846 0 -0.49444931195810304 -0.0742958808020909 0
          0.2774744848156554 0.4159421958352947 0 0.19741993454956117 -0.4593749769441594 0
          0.07459110131689195 -0.4944048620354913 0 0.4822008547787608 -0.13222078373172816 0
          -0.2404338357334717 -0.43839659058264807 0 -0.15694631726490416 -0.4747292423023718 0
          -0.4998814676863267 0.010886609378677489 0 -0.4709269739955872 -0.16801126498946295 0
          -0.45175292856115196 0.21428787071699307 0 0.28451140462312047 -0.4111608695381639 0
          0.4863055240300171 0.11621934992887563 0 -0.20311985480480388 -0.4568832723837407 0
          0.47606943726772244 -0.15283288553054955 0 -0.1369115350736448 0.48089004103202027 0
          0.16030366531875126 -0.4736060967569714 0 -0.28569938302648995 -0.4103362798221515 0
          -0.49816718606859456 0.04277212555506518 0 0.3580888448652222 -0.3489589935552469 0
          -0.24842472228113077 0.43391837637917924 0 -0.40655268855589055 0.29105826122612816 0
          0.4460334208786055 0.22595173701330287 0 0.3077879866546096 0.39403877381686925 0
          0.4907343537503957 0.0958112417682887 0 -0.3237255036979421 0.3810535372562675 0
          -0.3729150031799297 0.33306816179772125 0 -0.46310278901933466 0.18850943425333808 0
          0.3638323194478361 0.34296653382685566 0 0.4191812703634184 0.27255653097387106 0
          -0.3355035861374372 -0.37072542897529875 0 0.009323391141955534 0.49991306682023634 0
          0.3761640207833994 -0.3293943373345484 0 0.46478739000129243 0.18431679819209779 0
          -0.44238524476284363 0.23301350865586945 0 0.4930482665772387 0.08308674277633077 0
          0.2863229457410818 -0.40990141588209905 0 -0.400981749611793 -0.298686518742084 0
          0.03345613281289583 0.49887943150345043 0 -0.493663750535575 -0.07934797670482595 0
          -0.35932061338166504 0.34769051870740453 0 0.16147943278107704 0.47320650121136504 0
          0.2778966097237669 -0.41566028713847125 0 0.1394669938844588 0.48015513911321656 0
          0.3527332080765898 0.35437167482742915 0 -0.027440316761127227 -0.49924646119531885 0
          <InformationKey name="L2_NORM_RANGE" location="vtkDataArray" length="2">
            <Value index="0">
              0.5
            </Value>
            <Value index="1">
              0.5
            </Value>
          </InformationKey>
        </DataArray>
        <DataArray type="Float64" Name="radius" format="ascii" RangeMin="1" RangeMax="1">
          1 1 1 1 1 1
          1 1 1 1 1 1
          1 1 1 1 1 1
          1 1 1 1 1 1
          1 1 1 1 1 1
          1 1 1 1 1 1
          1 1 1 1 1 1
          1 1 1 1 1 1
          1 1 1 1 1 1
          1 1 1 1 1 1
          1 1 1 1 1 1
          1 1 1 1 1 1
          1 1 1 1 1 1
          1 1 1 1 1 1
          1 1 1 1 1 1
          1 1 1 1 1 1
          1 1 1 1 1 1
          1 1 1 1 1 1
          1 1 1 1 1 1
          1 1 1 1 1 1
          1 1 1 1 1 1
          1 1 1 1 1 1
          1 1 1 1 1 1
          1 1 1 1 1 1
          1 1 1 1 1 1
          1 1 1 1
        </DataArray>
      </PointData>
      <CellData>
      </CellData>
      <Points>
        <DataArray type="Float32" Name="Points" NumberOfComponents="3" format="ascii" RangeMin="3.0725478861588043" RangeMax="67.362064119181">
          -37.78944396972656 33.74787139892578 0 46.92831039428711 -28.125282287597656 0
          -19.6829776763916 4.5859456062316895 0 -31.103466033935547 49.832332611083984 0
          48.88935089111328 46.34090042114258 0 22.31549072265625 48.52628707885742 0
          -39.88665008544922 29.4750919342041 0 -19.782651901245117 -50.19832992553711 0
          -39.069095611572266 13.281243324279785 0 37.71590042114258 0.812210738658905 0
          29.70503044128418 -13.366575241088867 0 -29.014490127563477 17.976539611816406 0
          -10.350707054138184 23.96006202697754 0 -3.3185901641845703 -7.512110710144043 0
          -32.46862030029297 -19.501375198364258 0 28.942447662353516 -18.628808975219727 0
          37.181968688964844 -35.20492172241211 0 48.94880676269531 31.217512130737305 0
          -37.86932373046875 26.22500991821289 0 -1.3623600006103516 15.6427640914917 0
          -38.1436767578125 -28.319616317749023 0 -45.03288650512695 -46.10372543334961 0
          -8.74743366241455 -4.155996799468994 0 -1.6106154918670654 29.564716339111328 0
          41.70859909057617 30.493728637695312 0 21.043254852294922 -49.79597473144531 0
          20.63352394104004 14.542539596557617 0 -4.17390251159668 26.987224578857422 0
          7.67835807800293 37.694305419921875 0 30.64558982849121 -47.8992919921875 0
          33.36851119995117 33.024391174316406 0 43.606163024902344 -8.502375602722168 0
          -7.734123706817627 7.576448917388916 0 -34.11244583129883 26.860002517700195 0
          -25.93877601623535 31.632593154907227 0 49.462642669677734 -17.83147621154785 0
          -20.26123809814453 -49.11649703979492 0 -29.2239933013916 40.78761672973633 0
          34.397281646728516 45.71136474609375 0 27.840866088867188 49.23434066772461 0
          -43.37946701049805 29.45644187927246 0 9.618658065795898 23.798215866088867 0
          19.41004753112793 18.234939575195312 0 -10.673911094665527 5.860016345977783 0
          -29.83260154724121 2.0986969470977783 0 -9.3624267578125 -14.560033798217773 0
          9.296942710876465 -13.727872848510742 0 46.634464263916016 -34.81827926635742 0
          -10.694341659545898 -11.762163162231445 0 22.228530883789062 -11.586813926696777 0
          42.5058708190918 -6.398262977600098 0 35.14518356323242 12.085668563842773 0
          -37.27251434326172 -2.551682233810425 0 -15.416984558105469 3.6918222904205322 0
          21.76813507080078 48.61904525756836 0 21.741857528686523 41.892417907714844 0
          0.8109949231147766 6.099006175994873 0 0.6303902864456177 -3.587167501449585 0
          4.812302589416504 -5.596328258514404 0 34.81957244873047 11.03271198272705 0
          0.5990749001502991 47.62670135498047 0 -47.10039138793945 47.57217788696289 0
          -13.857398986816406 17.339942932128906 0 -15.21776294708252 35.697818756103516 0
          -45.2721061706543 15.156020164489746 0 24.425294876098633 -36.190269470214844 0
          48.00917053222656 -40.48122787475586 0 -21.916248321533203 30.423219680786133 0
          -42.33244705200195 13.120287895202637 0 -48.68720245361328 18.5593204498291 0
          3.046208620071411 -5.8260016441345215 0 -30.057405471801758 -35.42152786254883 0
          -11.021890640258789 26.600034713745117 0 -46.32694625854492 -24.55248260498047 0
          1.1700764894485474 33.33213806152344 0 47.46665954589844 32.319252014160156 0
          -19.635486602783203 -43.73102951049805 0 -24.48473358154297 3.68424654006958 0
          39.51523208618164 -14.904860496520996 0 -47.352970123291016 -33.44916915893555 0
          37.53605270385742 -29.89573097229004 0 -23.36404800415039 -0.6703224182128906 0
          -27.622814178466797 -0.49231916666030884 0 44.371429443359375 15.59854507446289 0
          26.476564407348633 -6.513262748718262 0 4.961881637573242 -44.502342224121094 0
          -16.966829299926758 -8.617995262145996 0 40.7435417175293 31.16250228881836 0
          -24.64315414428711 -36.25941467285156 0 -1.3732515573501587 -11.787994384765625 0
          21.752458572387695 -21.41591453552246 0 11.870515823364258 31.590301513671875 0
          -18.31657600402832 -11.486212730407715 0 -14.890244483947754 31.431873321533203 0
          17.778182983398438 -12.378876686096191 0 -4.6310715675354 -19.307907104492188 0
          40.5052490234375 -1.2632800340652466 0 25.685819625854492 -38.33119201660156 0
          -10.037334442138672 37.2251091003418 0 -13.107906341552734 42.089439392089844 0
          5.255499362945557 -36.11817169189453 0 -29.54942512512207 44.99644470214844 0
          49.93354415893555 -26.716529846191406 0 -48.18905258178711 -11.425979614257812 0
          28.409334182739258 -2.9530935287475586 0 4.184754848480225 -48.62367248535156 0
          39.75440979003906 -30.199907302856445 0 38.638423919677734 -5.590332984924316 0
          -34.61991500854492 -25.50946617126465 0 29.132795333862305 -2.6471946239471436 0
          -41.029449462890625 14.969259262084961 0 14.060436248779297 8.12395191192627 0
          21.731412887573242 -14.934385299682617 0 18.379789352416992 20.520221710205078 0
          -33.91838073730469 -36.48680877685547 0 -5.357631683349609 -46.33255386352539 0
          30.08412742614746 -33.188079833984375 0 32.6328125 -16.787532806396484 0
          15.901397705078125 -8.103437423706055 0 27.6151180267334 -38.39741897583008 0