<?xml version="1.0"?>
<VTKFile type="PolyData" version="0.1" byte_order="LittleEndian" header_type="UInt32" compressor="vtkZLibDataCompressor">
  <PolyData>
    <Piece NumberOfPoints="154" NumberOfVerts="0" NumberOfLines="0" NumberOfStrips="0" NumberOfPolys="0">
      <PointData>
        <DataArray type="Int32" Name="id" format="ascii" RangeMin="0" RangeMax="153">
          0 1 2 3 4 5
          6 7 8 9 10 11
          12 13 14 15 16 17
          18 19 20 21 22 23
          24 25 26 27 28 29
          30 31 32 33 34 35
          36 37 38 39 40 41
          42 43 44 45 46 47
          48 49 50 51 52 53
          54 55 56 57 58 59
          60 61 62 63 64 65
          66 67 68 69 70 71
          72 73 74 75 76 77
          78 79 80 81 82 83
          84 85 86 87 88 89
          90 91 92 93 94 95
          96 97 98 99 100 101
          102 103 104 105 106 107
          108 109 110 111 112 113
          114 115 116 117 118 119
          120 121 122 123 124 125
          126 127 128 129 130 131
          132 133 134 135 136 137
          138 139 140 141 142 143
          144 145 146 147 148 149
          150 151 152 153
        </DataArray>
        <DataArray type="Float64" Name="director" NumberOfComponents="3" format="ascii" RangeMin="0.9999999999999999" RangeMax="1">
          -0.9970915565899361 0.07621304204044253 0 0.32456496056795425 -0.945863407882725 0
          -0.7627643068135906 -0.6466765901524366 0 0.2377795049483382 0.9713191581691999 0
          -0.9703712074721255 0.2416189556079763 0 -0.11045974379154348 0.9938805989662474 0
          0.8399086877478406 0.5427277367572994 0 0.8843524583172029 0.4668198040661086 0
          0.9728848484349956 -0.23129001639849403 0 -0.5555802613807471 -0.8314629114783778 0
          -0.7100579043757009 0.7041432897028757 0 -0.9873804659000943 -0.1583660808346052 0
          -0.520294680126754 -0.8539867948813955 0 -0.2456574854019731 0.9693566938263641 0
          0.5973373609535276 0.8019900730115523 0 0.8797458774835958 -0.47544420392998593 0
          -0.9193443807711161 -0.39345382136226986 0 -0.9079962635796396 0.41897826354766143 0
          0.9821139534387973 0.18828749948102202 0 -0.9310537973472018 -0.3648819349397221 0
          0.7026619585879017 0.7115238379375732 0 0.5436740397023415 -0.8392964545104052 0
          -0.9205921047787272 -0.39052551340350733 0 0.7726854595809903 0.6347890835168116 0
          -0.953634240696313 -0.3009679965902797 0 -0.8794762437096277 0.4759427872658682 0
          0.9444220937212073 -0.3287353173774473 0 0.43026753988354305 0.9027014147117327 0
          -0.9111923732967806 -0.41198113894422445 0 -0.6116499241629947 -0.7911285421923563 0
          0.7546993271478545 0.6560708236178284 0 -0.987347054388204 -0.15857425450222637 0
          -0.9999748446085929 0.007092964825840716 0 -0.0579861696376 0.9983173864712361 0
          0.9776768838052842 -0.21011404254068544 0 0.22564239735335948 0.9742101972965734 0
          0.6027102619976322 0.7979601118368922 0 -0.8176295379573916 -0.575744681833521 0
          -0.9801123995815871 -0.1984431510191855 0 0.9913125658536721 0.13152717126361743 0
          -0.13548716232406827 0.9907791019421895 0 0.8984704453500123 -0.43903400646481877 0
          -0.1324618859760893 -0.9911880995873878 0 -0.9110174792353293 -0.41236773943618144 0
          0.7563276109623143 0.6541930486454577 0 -0.8299343171350995 0.5578611200303316 0
          0.4309245959661841 -0.902387939076859 0 -0.9919907576077224 -0.12631047787439098 0
          -0.8781058227681708 -0.47846647115616553 0 -0.3206442821928233 0.9471996855452651 0
          0.7570923087268214 -0.6533079182641913 0 0.9987444675820129 -0.05009479488251943 0
          0.9949831492296509 -0.10004265464813568 0 0.13147465811554498 0.9913195318732505 0
          -0.4957173941364532 0.8684838888261338 0 -0.9556301163307073 0.2945693140192284 0
          -0.811319325252828 -0.5846032436373372 0 -0.5339919409152517 0.8454895664865193 0
          -0.38195610651011164 -0.924180465439319 0 0.9501388341075289 -0.31182718919424873 0
          -0.9934006512136447 -0.11469588557706212 0 -0.2971977391820029 -0.9548159528543216 0
          -0.6839152229020222 -0.7295614901314881 0 0.9955883618645394 -0.09382864018988535 0
          0.5827320034750287 -0.8126643908317744 0 -0.9879304338751059 0.15489821762481604 0
          0.8460398839406517 -0.5331196064502681 0 -0.9509647570072253 -0.3092992578881964 0
          -0.18696160537935638 0.982367221620293 0 0.9920682486602858 -0.12570039777229594 0
          0.3720689114072855 0.9282051094258195 0 -0.24346775234454304 0.9699089924154205 0
          0.10124266502437483 0.994861760637508 0 -0.5051564301728647 0.8630277985412798 0
          -0.24663085886453306 -0.9691094981764149 0 -0.9996691186281664 0.02572262158460783 0
          -0.9623504340707295 0.27181177686752006 0 0.312705550251458 -0.9498501138821498 0
          -0.6938333281835902 0.7201356210476485 0 0.011200733425254869 -0.9999372698178303 0
          -0.1622538586577624 0.9867490488217695 0 0.867986261860634 -0.4965882089027114 0
          -0.7199667188324397 -0.6940085905618537 0 -0.8542971406358053 -0.5197849512072151 0
          -0.9350048504777859 0.35463492437013766 0 0.10914582215994162 0.9940257489144989 0
          -0.9998753577610408 0.01578825329891596 0 -0.454398559460125 -0.8907984896487888 0
          0.8467681129698977 0.531962181792464 0 0.46492908922785076 0.8853479214352746 0
          0.7228653451336462 -0.6909889237931492 0 -0.025693316658692254 -0.9996698722473716 0
          -0.9091764474980095 -0.4164110797215886 0 -0.12948450724545083 -0.991581445158895 0
          0.040827794470141496 0.999166197986453 0 0.9965974692811885 -0.08242259533847847 0
          -0.8357515427631415 0.5491077842910524 0 0.9989304285212153 -0.04623850099669269 0
          -0.8222236670995503 -0.5691645115969266 0 0.8381340320101043 -0.5454643383269757 0
          -0.5788694099949284 0.815420263528031 0 0.6788673504678812 -0.7342609348649286 0
          -0.8320933525451703 -0.5546356034822675 0 0.9993834846210132 0.035109125120986455 0
          -0.39471181971867625 0.9188049735250519 0 -0.9307273897084566 0.3657137214358833 0
          0.9879254448174241 0.1549300341518542 0 0.6300641050646341 -0.7765431240498507 0
          -0.45973606594190264 -0.8880556005522754 0 -0.9926150404344972 -0.12130697219542426 0
          0.6043991945371994 0.7966816262741251 0 0.4105957439976594 -0.9118174899677065 0
          0.24413453850307765 -0.969741371247968 0 0.9827264605994326 -0.1850640527971649 0
          -0.500215899930183 -0.8659007180139286 0 -0.27297296088907624 -0.9620217059003663 0
          -0.9998417271746127 0.017791025841342775 0 -0.9801428593101981 -0.1982926507544574 0
          -0.8707095484773958 0.49179760287163815 0 0.4998232638030316 -0.8661274184329261 0
          0.98462386977065 0.1746878217789382 0 -0.43267146449984495 -0.9015516645248676 0
          0.9386271938420399 -0.34493331381618925 0 -0.2869169771768879 0.9579554520997713 0
          0.4177495644006844 -0.9085622166054664 0 -0.5709691444545503 -0.820971519652685 0
          -0.9976937464894362 -0.06787627137573617 0 0.7784830170950741 -0.6276656690424853 0
          -0.571636924162548 0.8205066891463966 0 -0.8386219545911769 0.5447138857030118 0
          0.8134102625790016 0.5816904200097845 0 0.6701971821456449 0.7421830886270834 0
          0.9960846463556764 0.08840462258551325 0 -0.6800154691003119 0.7331977644430477 0
          -0.8173182135517556 0.576186547740024 0 -0.9319161697941785 0.3626737548764013 0
          0.6729031787661837 0.7397305671704837 0 0.844987293427448 0.5347863816012481 0
          -0.5788046066903855 -0.8154662637252311 0 0.1260067143544657 0.9920293886461188 0
          0.7220934680205371 -0.6917955069542397 0 0.9282228049549268 0.3720247631026837 0
          -0.8691242914291909 0.4945937383830358 0 0.9887526326393637 0.14956012653353618 0
          0.5530902941692961 -0.8331213155931864 0 -0.8237938949627596 -0.5668894236287055 0
          0.13675090977083923 0.9906054657010771 0 -0.9973654022998699 -0.07254139711377638 0
          -0.7657258778307058 0.6431670700684194 0 0.3709703796984663 0.9286446992183693 0
          0.46839512266665617 -0.8835191050917282 0 0.29429727624570406 0.9557139285342449 0
          0.7214629493632109 0.692453040065633 0 -0.08535619251758689 -0.9963505007771616 0
          <InformationKey name="L2_NORM_RANGE" location="vtkDataArray" length="2">
            <Value index="0">
              1
            </Value>
            <Value index="1">
              1
            </Value>
          </InformationKey>
        </DataArray>
        <DataArray type="Float64" Name="velocity" NumberOfComponents="3" format="ascii" RangeMin="2.98391528750295" RangeMax="65.61664053985334">
          20.472372037415383 -30.489259884928693 0 -7.778161120144524 43.605506408926914 0
          -35.778279556590725 14.318100471258902 0 -2.7267860528004704 -6.306708942777526 0
          -25.56803597993237 0.5919415230237348 0 40.69440930810454 -42.34960265147567 0
          21.390392053252754 11.720491675449018 0 -31.091580543867785 -10.301819378431787 0
          -22.233594277397 35.80993014386058 0 40.8936574712134 11.727908496204755 0
          -31.918129728714472 1.502371966558826 0 32.46317064138093 -14.067556233339687 0
          31.61170207931397 -20.66117562390716 0 -32.788218903188394 -0.7210412736466054 0
          -30.467523066969363 36.43074923190564 0 -29.58028331655805 11.627227611362315 0
          37.80505508071815 -10.753091333426255 0 44.65772551607054 -33.330173144632525 0
          47.18774005931614 6.396489460552942 0 9.836891189866492 -36.87781496106794 0
          6.677739541459459 5.438027088135769 0 -18.951003944933063 -37.93510690561732 0
          23.77908201111339 -25.727634747998636 0 32.285914726045576 -31.45240287607238 0
          -18.732306147503376 38.172541468590836 0 17.42129460906331 23.929755673071398 0
          -43.74567596165927 -36.843843838172035 0 -41.00470913383489 -49.1685554695042 0
          -4.3489588147394045 13.430332075080756 0 2.9762992276979077 -0.21305715242312573 0
          -16.420210149222868 -24.717665071237764 0 -26.63245586108499 -32.68369682188443 0
          9.59810303037343 22.68931438280859 0 37.757309281314306 20.71597266757422 0
          -26.523439665569285 -2.200425364398683 0 -48.17882370239545 24.733119867345934 0
          15.472358145094617 -42.19330576503555 0 -2.7230899171649696 49.647506705142575 0
          3.209752212846098 39.943600631846664 0 27.290092728339346 -29.624030405099575 0
          40.710862227344634 -12.518743865476708 0 34.808888796398136 -17.330075407408792 0
          -17.326333983387784 15.921061981020685 0 8.676498234140595 -45.101679767889145 0
          26.99656655139428 -0.8247828969564566 0 -1.181598492863479 -7.087342925864128 0
          -10.527228461045638 27.645380145270124 0 47.47543864880045 24.850515939083976 0
          13.45020038299144 -42.781974126121774 0 13.33632968921519 2.89206325620421 0
          -20.383234879262602 -17.467213088655853 0 13.111992425538233 49.45054225750374 0
          1.6047826830209004 22.445391370448775 0 -25.442525168919026 -16.766088433362327 0
          24.860911549332883 18.296648546241826 0 18.127137052491975 -42.11576276898946 0
          -4.106371249565804 19.81468592825003 0 -43.2115168522386 -43.085994704941484 0
          2.7042817825837204 -23.795120132132308 0 -1.6624837545658195 -36.91945356486498 0
          -40.55592314206473 -37.96183180819797 0 46.98372058379586 25.62816454897687 0
          -23.182362140209666 22.4905983535036 0 -8.42374893276238 -2.5281598168396826 0
          -44.45585735866184 11.374414308737222 0 -0.9380815156004232 40.44748670579848 0
          43.5214270198436 41.82766196839604 0 -19.617472876146607 29.010177679462174 0
          -27.377259211045168 -5.104813753149479 0 1.0108912986547693 -26.93680745999526 0
          21.18807799653547 48.4452609761332 0 15.521324819791857 -22.733301715898534 0
          -3.0984436752635744 -49.699879474370995 0 -5.357606698271908 47.09441502974741 0
          -19.533649987483585 -28.48909553641595 0 -25.241492794096537 30.645102659141713 0
          -1.3628901407151872 -9.249808436218693 0 -28.437070584076316 4.0252086974848424 0
          22.302423751473526 -21.630608392707323 0 4.286209731170565 25.592468486596516 0
          -16.80227135673981 30.176297340482108 0 35.70724318896097 -48.51082997011254 0
          38.494266527440914 9.308694076898924 0 -41.37827709570729 42.48759424258512 0
          41.371957205314274 48.07567751376408 0 40.00221093710812 44.971458396046486 0
          43.45219546574209 -49.16757290067578 0 27.77940311086799 -47.40411222574361 0
          8.787704962513757 14.978077069606684 0 -17.176354508003442 -38.89206379839693 0
          -37.572734230027905 47.39150589914381 0 3.322947059262674 16.230028184641725 0
          20.82576325094061 -43.12614201683975 0 -29.404442159877867 -6.6570323329381935 0
          -48.88074135310182 -43.07374742736768 0 -15.693819004659524 -18.776991949103287 0
          49.2742614956165 -23.093566379026992 0 35.70662412955289 -14.438908494432013 0
          24.676827977366614 34.48562696853686 0 -28.28613766609157 46.49521791482232 0
          21.219265309149932 48.266786794162286 0 25.989900495501132 -30.673962513745963 0
          -14.741048879365302 -30.369965831724773 0 33.206792723445574 45.25947670903301 0
          26.73700517552618 36.1968809297727 0 -4.433626259916984 -16.731616061562868 0
          33.82599634129042 5.430878965379037 0 -37.91344272052366 -28.781627030961573 0
          -0.8760744559602713 -9.034520229977083 0 25.951148963832622 -14.29357740625877 0
          27.17860558051683 48.15404052238152 0 34.61617221348607 33.462162550860555 0
          -13.28055184508198 -44.93740558320786 0 47.55616001461492 34.25892934866374 0
          36.946038841117556 -42.45015674570037 0 -46.76239316488481 11.393180618063838 0
          23.568028568935404 11.552780427737098 0 16.263007945057282 45.12644264060411 0
          -23.411248530157515 41.93857265065735 0 -38.160345232049345 -18.69342940760771 0
          37.21153998486223 -26.635630373860984 0 30.80584946405935 5.653176675427417 0
          44.35923105765637 0.370346282237378 0 16.64168251311186 -34.7034267378138 0
          47.322877480901255 13.376690736606477 0 -32.1350217035443 -42.58571958176201 0
          -0.5025219679409361 28.59799073613067 0 -3.5320261053794297 38.30316610148137 0
          14.736889949280638 40.32409694969634 0 -49.402638529229115 19.356180838194604 0
          8.508964450503598 -39.46387075781778 0 49.03198966734128 -27.000797471280585 0
          -16.70921662991016 18.938285128010065 0 46.14207459237997 -27.3400906744995 0
          42.424140585792586 37.62461911345025 0 -6.825547086494495 -2.911259141055119 0
          6.210247997996007 33.76154121673389 0 -35.16911208657487 13.927818279591207 0
          49.5593687100304 13.93941034113417 0 -6.0481675260535965 -47.161165000275155 0
          -41.68490984500472 3.0367185203014984 0 28.200151364646487 23.664522522360798 0
          -30.983903256438072 -23.817273645282434 0 -4.775523168997552 -3.9973115200368454 0
          17.36371431475763 -32.304692769073746 0 -31.21691646176371 -40.35131875297581 0
          -17.61253928181918 -32.96735050248542 0 -47.52659271635095 33.064298464373394 0
          -25.51716157275273 -35.79649925661745 0 -34.4558032257712 -19.698927528483058 0
          -46.64276824331557 -9.071061809886274 0 28.312364537561464 -5.662808823633235 0
          -48.25117889494449 -21.421563451189467 0 45.139670111270334 -32.86849758057289 0
          <InformationKey name="L2_NORM_RANGE" location="vtkDataArray" length="2">
            <Value index="0">
              2.9839152875
            </Value>
            <Value index="1">
              65.61664054
            </Value>
          </InformationKey>
        </DataArray>
        <DataArray type="Float64" Name="force" NumberOfComponents="3" format="ascii" RangeMin="0.49999999999999994" RangeMax="0.5">
          -0.49854577829496804 0.038106521020221266 0 0.16228248028397713 -0.4729317039413625 0
          -0.3813821534067953 -0.3233382950762183 0 0.1188897524741691 0.48565957908459995 0
          -0.48518560373606273 0.12080947780398815 0 -0.05522987189577174 0.4969402994831237 0
          0.4199543438739203 0.2713638683786497 0 0.44217622915860144 0.2334099020330543 0
          0.4864424242174978 -0.11564500819924702 0 -0.27779013069037356 -0.4157314557391889 0
          -0.35502895218785047 0.3520716448514378 0 -0.49369023295004716 -0.0791830404173026 0
          -0.260147340063377 -0.42699339744069775 0 -0.12282874270098655 0.48467834691318207 0
          0.2986686804767638 0.40099503650577617 0 0.4398729387417979 -0.23772210196499297 0
          -0.45967219038555807 -0.19672691068113493 0 -0.4539981317898198 0.20948913177383072 0
          0.49105697671939863 0.09414374974051101 0 -0.4655268986736009 -0.18244096746986105 0
          0.35133097929395085 0.3557619189687866 0 0.27183701985117076 -0.4196482272552026 0
          -0.4602960523893636 -0.19526275670175366 0 0.38634272979049517 0.3173945417584058 0
          -0.4768171203481565 -0.15048399829513984 0 -0.43973812185481387 0.2379713936329341 0
          0.47221104686060367 -0.16436765868872366 0 0.21513376994177152 0.45135070735586635 0
          -0.4555961866483903 -0.20599056947211222 0 -0.30582496208149734 -0.39556427109617814 0
          0.37734966357392724 0.3280354118089142 0 -0.493673527194102 -0.07928712725111318 0
          -0.49998742230429644 0.003546482412920358 0 -0.0289930848188 0.49915869323561807 0
          0.4888384419026421 -0.10505702127034272 0 0.11282119867667974 0.4871050986482867 0
          0.3013551309988161 0.3989800559184461 0 -0.4088147689786958 -0.2878723409167605 0
          -0.49005619979079357 -0.09922157550959275 0 0.49565628292683606 0.06576358563180872 0
          -0.06774358116203413 0.49538955097109477 0 0.44923522267500615 -0.21951700323240939 0
          -0.06623094298804465 -0.4955940497936939 0 -0.45550873961766464 -0.20618386971809072 0
          0.37816380548115713 0.32709652432272884 0 -0.41496715856754973 0.2789305600151658 0
          0.21546229798309205 -0.4511939695384295 0 -0.4959953788038612 -0.06315523893719549 0
          -0.4390529113840854 -0.23923323557808276 0 -0.16032214109641166 0.47359984277263256 0
          0.3785461543634107 -0.32665395913209566 0 0.4993722337910064 -0.025047397441259715 0
          0.49749157461482546 -0.05002132732406784 0 0.06573732905777249 0.49565976593662525 0
          -0.2478586970682266 0.4342419444130669 0 -0.47781505816535363 0.1472846570096142 0
          -0.405659662626414 -0.2923016218186686 0 -0.26699597045762585 0.42274478324325965 0
          -0.19097805325505582 -0.4620902327196595 0 0.47506941705376443 -0.15591359459712437 0
          -0.49670032560682237 -0.05734794278853106 0 -0.14859886959100144 -0.4774079764271608 0
          -0.3419576114510111 -0.36478074506574404 0 0.4977941809322697 -0.046914320094942674 0
          0.29136600173751437 -0.4063321954158872 0 -0.49396521693755296 0.07744910881240802 0
          0.42301994197032583 -0.26655980322513406 0 -0.47548237850361263 -0.1546496289440982 0
          -0.09348080268967819 0.4911836108101465 0 0.4960341243301429 -0.06285019888614797 0
          0.18603445570364274 0.46410255471290973 0 -0.12173387617227152 0.48495449620771025 0
          0.050621332512187416 0.497430880318754 0 -0.25257821508643236 0.4315138992706399 0
          -0.12331542943226653 -0.48455474908820745 0 -0.4998345593140832 0.012861310792303914 0
          -0.48117521703536476 0.13590588843376003 0 0.156352775125729 -0.4749250569410749 0
          -0.3469166640917951 0.36006781052382425 0 0.005600366712627434 -0.49996863490891513 0
          -0.0811269293288812 0.49337452441088475 0 0.433993130930317 -0.2482941044513557 0
          -0.35998335941621984 -0.34700429528092686 0 -0.42714857031790265 -0.25989247560360756 0
          -0.46750242523889296 0.17731746218506883 0 0.05457291107997081 0.49701287445724945 0
          -0.4999376788805204 0.00789412664945798 0 -0.2271992797300625 -0.4453992448243944 0
          0.42338405648494887 0.265981090896232 0 0.23246454461392538 0.4426739607176373 0
          0.3614326725668231 -0.3454944618965746 0 -0.012846658329346127 -0.4998349361236858 0
          -0.45458822374900476 -0.2082055398607943 0 -0.06474225362272541 -0.4957907225794475 0
          0.020413897235070748 0.4995830989932265 0 0.49829873464059427 -0.041211297669239234 0
          -0.4178757713815707 0.2745538921455262 0 0.49946521426060764 -0.023119250498346344 0
          -0.41111183354977515 -0.2845822557984633 0 0.41906701600505214 -0.27273216916348786 0
          -0.2894347049974642 0.4077101317640155 0 0.3394336752339406 -0.3671304674324643 0
          -0.4160466762725851 -0.27731780174113374 0 0.4996917423105066 0.017554562560493227 0
          -0.19735590985933812 0.45940248676252593 0 -0.4653636948542283 0.18285686071794166 0
          0.49396272240871203 0.0774650170759271 0 0.31503205253231703 -0.38827156202492535 0
          -0.22986803297095132 -0.4440278002761377 0 -0.4963075202172486 -0.06065348609771213 0
          0.3021995972685997 0.39834081313706254 0 0.2052978719988297 -0.45590874498385325 0
          0.12206726925153882 -0.484870685623984 0 0.4913632302997163 -0.09253202639858245 0
          -0.2501079499650915 -0.4329503590069643 0 -0.13648648044453812 -0.48101085295018314 0
          -0.49992086358730636 0.008895512920671388 0 -0.49007142965509903 -0.0991463253772287 0
          -0.4353547742386979 0.24589880143581908 0 0.2499116319015158 -0.43306370921646303 0
          0.492311934885325 0.0873439108894691 0 -0.21633573224992247 -0.4507758322624338 0
          0.4693135969210199 -0.17246665690809462 0 -0.14345848858844396 0.47897772604988564 0
          0.2088747822003422 -0.4542811083027332 0 -0.28548457222727514 -0.4104857598263425 0
          -0.4988468732447181 -0.03393813568786808 0 0.38924150854753703 -0.31383283452124267 0
          -0.285818462081274 0.4102533445731983 0 -0.41931097729558847 0.2723569428515059 0
          0.4067051312895008 0.2908452100048923 0 0.33509859107282247 0.3710915443135417 0
          0.4980423231778382 0.044202311292756626 0 -0.3400077345501559 0.36659888222152387 0
          -0.4086591067758778 0.288093273870012 0 -0.46595808489708923 0.18133687743820065 0
          0.33645158938309183 0.36986528358524184 0 0.422493646713724 0.26739319080062407 0
          -0.28940230334519274 -0.40773313186261556 0 0.06300335717723285 0.4960146943230594 0
          0.36104673401026854 -0.3458977534771199 0 0.4641114024774634 0.18601238155134184 0
          -0.43456214571459545 0.2472968691915179 0 0.4943763163196819 0.07478006326676809 0
          0.27654514708464806 -0.4165606577965932 0 -0.4118969474813798 -0.28344471181435277 0
          0.06837545488541961 0.49530273285053855 0 -0.49868270114993496 -0.03627069855688819 0
          -0.3828629389153529 0.3215835350342097 0 0.18548518984923315 0.46432234960918467 0
          0.23419756133332809 -0.4417595525458641 0 0.14714863812285203 0.47785696426712243 0
          0.36073147468160544 0.3462265200328165 0 -0.042678096258793444 -0.4981752503885808 0
          <InformationKey name="L2_NORM_RANGE" location="vtkDataArray" length="2">
            <Value index="0">
              0.5
            </Value>
            <Value index="1">
              0.5
            </Value>
          </InformationKey>
        </DataArray>
        <DataArray type="Float64" Name="radius" format="ascii" RangeMin="1" RangeMax="1">
          1 1 1 1 1 1
          1 1 1 1 1 1
          1 1 1 1 1 1
          1 1 1 1 1 1
          1 1 1 1 1 1
          1 1 1 1 1 1
          1 1 1 1 1 1
          1 1 1 1 1 1
          1 1 1 1 1 1
          1 1 1 1 1 1
          1 1 1 1 1 1
          1 1 1 1 1 1
          1 1 1 1 1 1
          1 1 1 1 1 1
          1 1 1 1 1 1
          1 1 1 1 1 1
          1 1 1 1 1 1
          1 1 1 1 1 1
          1 1 1 1 1 1
          1 1 1 1 1 1
          1 1 1 1 1 1
          1 1 1 1 1 1
          1 1 1 1 1 1
          1 1 1 1 1 1
          1 1 1 1 1 1
          1 1 1 1
        </DataArray>
      </PointData>
      <CellData>
      </CellData>
      <Points>
        <DataArray type="Float32" Name="Points" NumberOfComponents="3" format="ascii" RangeMin="2.9797647180169933" RangeMax="67.2983301214307">
          -37.7480354309082 33.738346099853516 0 46.89683151245117 -27.92209815979004 0
          -19.60367774963379 4.505748271942139 0 -31.02463150024414 49.969276428222656 0
          48.78564453125 46.35758972167969 0 22.306123733520508 48.564979553222656 0
          -39.828636169433594 29.450197219848633 0 -19.6173038482666 -50.27773666381836 0
          -39.036094665527344 13.346902847290039 0 37.452476501464844 0.8550832271575928 0
          29.735260009765625 -13.454483985900879 0 -28.954801559448242 18.039140701293945 0
          -10.473247528076172 24.019243240356445 0 -3.3620333671569824 -7.547219753265381 0
          -32.436378479003906 -19.668291091918945 0 28.921152114868164 -18.725854873657227 0
          37.30013656616211 -35.36355972290039 0 48.81990051269531 31.167129516601562 0
          -37.97332000732422 26.13637351989746 0 -1.2900538444519043 15.682991027832031 0
          -38.07127380371094 -28.20098114013672 0 -45.00094985961914 -46.06406784057617 0
          -8.826613426208496 -4.191438674926758 0 -1.6072951555252075 29.66598129272461 0
          41.7804069519043 30.588285446166992 0 20.86952781677246 -49.8158073425293 0
          20.649986267089844 14.66511058807373 0 -4.148430347442627 26.87306022644043 0
          7.831808090209961 37.85744857788086 0 30.75396156311035 -47.95914840698242 0
          33.245025634765625 32.924339294433594 0 43.71019744873047 -8.617836952209473 0
          -7.673009395599365 7.563417434692383 0 -34.056575775146484 26.870586395263672 0
          -25.938093185424805 31.614381790161133 0 49.5384635925293 -17.745758056640625 0
          -20.20952606201172 -49.03471755981445 0 -29.128671646118164 40.815982818603516 0
          34.44369888305664 45.7679443359375 0 27.68464469909668 49.10829162597656 0
          -43.42485809326172 29.5529842376709 0 9.48198127746582 23.78947639465332 0
          19.30159568786621 18.29262924194336 0 -10.470890045166016 5.797919273376465 0
          -29.761972427368164 2.243901491165161 0 -9.417330741882324 -14.550117492675781 0
          9.498602867126465 -13.824911117553711 0 46.627567291259766 -34.98121643066406 0
          -10.710844993591309 -11.618955612182617 0 22.310001373291016 -11.781904220581055 0
          42.539188385009766 -6.404445171356201 0 35.24348449707031 12.139616012573242 0
          -37.19945526123047 -2.5791592597961426 0 -15.380233764648438 3.6829094886779785 0
          21.75452995300293 48.61753463745117 0 21.828065872192383 41.88652038574219 0
          0.8774147033691406 6.07316255569458 0 0.6861144304275513 -3.6217973232269287 0
          4.809741973876953 -5.511382102966309 0 34.84003829956055 10.997522354125977 0
          0.6432281136512756 47.575653076171875 0 -47.07725524902344 47.72040557861328 0
          -14.004803657531738 17.518783569335938 0 -15.226273536682129 35.68146896362305 0
          -45.40472412109375 15.244440078735352 0 24.412748336791992 -36.16889953613281 0
          48.058326721191406 -40.496910095214844 0 -21.91082191467285 30.314132690429688 0
          -42.50043487548828 13.000112533569336 0 -48.577606201171875 18.554935455322266 0
          3.0106358528137207 -5.845492839813232 0 -30.10883331298828 -35.36507034301758 0
          -11.051849365234375 26.666521072387695 0 -46.590152740478516 -24.48284912109375 0
          1.2984174489974976 33.381046295166016 0 47.45555114746094 32.291133880615234 0
          -19.661161422729492 -43.81340789794922 0 -24.420907974243164 3.6174721717834473 0
          39.470638275146484 -15.004197120666504 0 -47.415401458740234 -33.491390228271484 0
          37.546932220458984 -29.755373001098633 0 -23.3497257232666 -0.6430714130401611 0
          -27.511165618896484 -0.3907986283302307 0 44.44320297241211 15.570035934448242 0
          26.437196731567383 -6.405810356140137 0 5.073875427246094 -44.40156173706055 0
          -16.917034149169922 -8.599482536315918 0 40.89528274536133 31.227563858032227 0
          -24.740007400512695 -36.26287078857422 0 -1.4751664400100708 -11.865774154663086 0
          21.648258209228516 -21.449195861816406 0 11.875704765319824 31.70838737487793 0
          -18.33515739440918 -11.469484329223633 0 -14.920641899108887 31.325590133666992 0
          17.855562210083008 -12.472357749938965 0 -4.575036525726318 -19.29423713684082 0
          40.51304626464844 -1.4006353616714478 0 25.68426513671875 -38.292701721191406 0
          -9.918329238891602 37.18113708496094 0 -13.052362442016602 42.08680725097656 0
          5.183168888092041 -36.06369400024414 0 -29.603357315063477 44.961795806884766 0
          49.967689514160156 -26.6395263671875 0 -48.28075408935547 -11.437158584594727 0
          28.44366455078125 -2.9281837940216064 0 4.161202907562256 -48.60466766357422 0
          39.725181579589844 -30.172321319580078 0 38.6143798828125 -5.700904846191406 0
          -34.573970794677734 -25.698623657226562 0 29.098037719726562 -2.6039836406707764 0
          -41.0975456237793 14.801653861999512 0 14.000103950500488 8.045855522155762 0
          21.785451889038086 -14.723612785339355 0 18.45170021057129 20.722314834594727 0
          -34.030967712402344 -36.49809265136719 0 -5.298953056335449 -46.28190994262695 0
          30.004756927490234 -33.1854362487793 0 32.61201095581055 -16.77136993408203 0
          15.932878494262695 -8.022195816040039 0 27.639142990112305 -38.47581100463867 0