<?xml version="1.0"?>
<VTKFile type="PolyData" version="0.1" byte_order="LittleEndian" header_type="UInt32" compressor="vtkZLibDataCompressor">
  <PolyData>
    <Piece NumberOfPoints="154" NumberOfVerts="0" NumberOfLines="0" NumberOfStrips="0" NumberOfPolys="0">
      <PointData>
        <DataArray type="Int32" Name="id" format="ascii" RangeMin="0" RangeMax="153">
          0 1 2 3 4 5
          6 7 8 9 10 11
          12 13 14 15 16 17
          18 19 20 21 22 23
          24 25 26 27 28 29
          30 31 32 33 34 35
          36 37 38 39 40 41
          42 43 44 45 46 47
          48 49 50 51 52 53
          54 55 56 57 58 59
          60 61 62 63 64 65
          66 67 68 69 70 71
          72 73 74 75 76 77
          78 79 80 81 82 83
          84 85 86 87 88 89
          90 91 92 93 94 95
          96 97 98 99 100 101
          102 103 104 105 106 107
          108 109 110 111 112 113
          114 115 116 117 118 119
          120 121 122 123 124 125
          126 127 128 129 130 131
          132 133 134 135 136 137
          138 139 140 141 142 143
          144 145 146 147 148 149
          150 151 152 153
        </DataArray>
        <DataArray type="Float64" Name="director" NumberOfComponents="3" format="ascii" RangeMin="0.9999999999999999" RangeMax="1">
          -0.902523373715026 -0.43064087114212407 0 -0.08823510595435079 -0.9960996767779942 0
          -0.4148411975996696 -0.9098938293966345 0 -0.10742921825796133 0.9942127353159802 0
          -0.38689697830248815 0.9221229463473968 0 0.8736134087580307 0.48662060379537353 0
          0.9407129862828233 -0.3392035929038087 0 0.9286265372459044 0.37101584106703706 0
          0.9999090079587157 0.01348984073356737 0 -0.40812518547933613 -0.9129259734378563 0
          -0.7821056648755061 0.6231458328269897 0 -0.9539963356927087 -0.2998182640949091 0
          0.09513166615125972 -0.9954646985681036 0 -0.2685111264924401 0.9632765827890559 0
          0.775116127019407 0.6318187949360436 0 0.9856553345467617 0.16877073644299617 0
          -0.8106588542677686 -0.5855187631470649 0 -0.9907441337517858 0.1357426293999915 0
          0.8624166650133149 -0.5061990674698164 0 -0.9990500406495931 -0.0435777039097546 0
          0.836824904025248 0.5474706202191443 0 0.8873867376445951 -0.461025788706535 0
          -0.644562319694752 -0.7645517745906554 0 0.6419786470794394 0.7667225160995681 0
          -0.9417417596499806 -0.33633682244345187 0 -0.594165032545839 0.8043431569298033 0
          0.9661396185606813 -0.2580198392515996 0 0.9954154760349196 -0.09564533480611696 0
          -0.9615948052978641 -0.27447300490970455 0 0.0026742629556019315 -0.9999964241524288 0
          0.5662996452015556 0.8241994369353768 0 -0.99964255176649 0.026735158458111894 0
          -0.9848109066762321 0.17363029139968023 0 0.22635213094048487 0.9740455393967479 0
          0.9104964090946209 -0.4135169754989518 0 0.13259731756611667 0.9911699911590698 0
          0.6426726243079541 0.7661409126036327 0 -0.1884080411197247 -0.9820908359420875 0
          -0.995170094948721 -0.09816558521067173 0 0.9079635151477029 -0.4190492276101069 0
          -0.18960981080825537 0.9818595213396148 0 0.4978015898713207 -0.8672909414502065 0
          0.6897404680467821 -0.7240566875173559 0 -0.9966452336041889 -0.0818430102944148 0
          0.287352041923247 0.9578250383042514 0 -0.6805892739529292 0.7326651623901771 0
          0.8456740045919243 -0.533699801346654 0 -0.5359584083518921 0.8442443867251392 0
          -0.27368066097537985 -0.9618206151918762 0 -0.9877818787179368 0.15584274149431324 0
          0.7402961058598277 -0.672280949937431 0 0.8053628823961254 -0.5927821080790181 0
          0.9305028913029258 -0.3662845468715482 0 0.30848826667236534 0.9512281478832928 0
          -0.4232954153158972 0.9059917170551517 0 -0.9458315238060039 0.32465786387335943 0
          -0.995281095049047 -0.09703371495500823 0 0.5241903744059786 0.8516011104854901 0
          -0.5733102093736628 -0.8193383939666973 0 0.6987387363093203 -0.7153769484550464 0
          -0.797438532555097 -0.6034001879320006 0 -0.627549275475996 -0.778576847106021 0
          -0.6738222029945642 -0.7388935232843447 0 0.900561604586739 -0.43472841676632773 0
          0.8096946281003042 -0.5868514370992968 0 -0.9720980035752125 -0.23457508700858687 0
          0.9785818114130347 -0.20585829682474258 0 -0.97192117091788 -0.23530668822117445 0
          -0.7800472689149274 0.6257205912053423 0 0.976557017823184 -0.21525889282510327 0
          -0.22001357196321333 0.9754968109389123 0 -0.25424250899349804 0.9671404999381895 0
          0.04653504121953164 0.9989166581545712 0 0.13682140656194197 0.9905957312175395 0
          0.11679693044762868 -0.9931558170992162 0 -0.9092904559939565 -0.4161620677552228 0
          -0.8969272751592398 -0.44217808977313805 0 0.7638924328834035 -0.6453435914173743 0
          -0.6024714002521245 0.7981404712694654 0 0.5043295845343353 -0.8635112449548209 0
          -0.8438494968333923 0.5365799350460569 0 0.8953300068373894 -0.4454033889145438 0
          -0.4884621320359785 -0.8725850935965307 0 -0.9875907137819481 -0.15704961652822452 0
          -0.9771291780497462 -0.2126465833344789 0 -0.052754355882021604 0.9986075194667188 0
          -0.9617525867759372 -0.2739196265874233 0 0.3429326317234469 -0.9393600002657292 0
          0.8638359190864368 -0.5037732673495996 0 -0.07610916019527529 0.9970994913920926 0
          -0.4344770247173466 -0.9006829158992427 0 -0.8067567953518778 -0.5908836375747498 0
          -0.9370335311526943 -0.34923940427092803 0 0.34045042903660083 -0.9402624662129156 0
          0.3221246271214821 0.946697271888879 0 0.9972410736360905 0.07423099792632105 0
          -0.9740253860042777 0.22643883814226287 0 0.9291215411830026 -0.36977447411864706 0
          -0.8948848627129938 -0.4462970787347216 0 0.7412866121604121 -0.6711886162858683 0
          -0.6073481366442555 0.7944358003732905 0 0.6119205037451714 -0.7909192734383552 0
          -0.768085237749022 -0.6403476146219554 0 0.9281839417894133 -0.37212171423375306 0
          -0.7309247357109006 0.6824580798305125 0 -0.9730061176612311 0.23077932098396192 0
          0.9650938725743599 0.2619042136343463 0 0.595337012762953 -0.8034760987325531 0
          0.4366613921908024 -0.8996259381376185 0 -0.9135171824691726 -0.40680014421529465 0
          -0.4460945320450943 0.8949858482006675 0 -0.24284015908914716 -0.9700663158431787 0
          0.3053665715708249 -0.9522348748954117 0 0.8853693284322438 -0.4648883223651004 0
          0.15410007536849468 -0.9880552447972858 0 0.32898231666294 -0.9443360817649006 0
          -0.5376374282016005 -0.843176135689791 0 -0.7595231882288956 -0.6504802276338717 0
          -0.8392360044681499 0.5437673480490856 0 0.2903261261570106 -0.9569277613648083 0
          0.9360921836937249 0.35175477768967617 0 0.47015595708468166 -0.8825833535807182 0
          0.3850976922655673 -0.9228758136454408 0 -0.14134772396511583 0.9899600097629608 0
          0.3616471272498046 -0.9323150515528341 0 -0.26569916665933874 -0.9640559905091265 0
          -0.9743248457778247 -0.22514682964682844 0 0.8245378280957811 -0.5658068310290113 0
          -0.8922021656357466 0.4516362426055771 0 -0.9836656264233908 0.18000537601160188 0
          0.3481936679692155 0.937422620585904 0 0.6581019953868712 0.7529287905690807 0
          0.8541147914851978 0.5200845344424281 0 -0.9295683111654183 0.3686499082830105 0
          -0.8720399203995536 0.48943475278073606 0 -0.9351888374762748 -0.3541494575172658 0
          0.5166652111568076 0.8561875142632549 0 0.8217334332428976 0.5698720599317362 0
          -0.8840672039373539 -0.4673597960055925 0 0.6163428579401209 0.7874779244310306 0
          0.4210172196174328 -0.907052644991241 0 0.9999766274816471 0.006836994254153781 0
          -0.8619189308155198 0.5070461090490993 0 0.9075558762405143 0.4199313414134653 0
          0.9999934013948514 0.0036327904915768516 0 -0.7441940724077681 -0.6679634590253732 0
          0.42269579620624914 0.9062716280837468 0 -0.9003009414980038 0.4352679803727906 0
          -0.8082520878594753 0.5888366178073497 0 0.6086939056826783 0.7934051481965356 0
          0.3447454953670859 -0.9386961933576287 0 0.3034535241222351 0.9528462408478066 0
          0.6126683027087161 0.7903401488321475 0 0.11378688550128813 -0.993505181007083 0
          <InformationKey name="L2_NORM_RANGE" location="vtkDataArray" length="2">
            <Value index="0">
              1
            </Value>
            <Value index="1">
              1
            </Value>
          </InformationKey>
        </DataArray>
        <DataArray type="Float64" Name="velocity" NumberOfComponents="3" format="ascii" RangeMin="2.98391528750295" RangeMax="65.61664053985334">
          20.472372037415383 -30.489259884928693 0 -7.778161120144524 43.605506408926914 0
          -35.778279556590725 14.318100471258902 0 -2.7267860528004704 -6.306708942777526 0
          -25.56803597993237 0.5919415230237348 0 40.69440930810454 -42.34960265147567 0
          21.390392053252754 11.720491675449018 0 -31.091580543867785 -10.301819378431787 0
          -22.233594277397 35.80993014386058 0 40.8936574712134 11.727908496204755 0
          -31.918129728714472 1.502371966558826 0 32.46317064138093 -14.067556233339687 0
          31.61170207931397 -20.66117562390716 0 -32.788218903188394 -0.7210412736466054 0
          -30.467523066969363 36.43074923190564 0 -29.58028331655805 11.627227611362315 0
          37.80505508071815 -10.753091333426255 0 44.65772551607054 -33.330173144632525 0
          47.18774005931614 6.396489460552942 0 9.836891189866492 -36.87781496106794 0
          6.677739541459459 5.438027088135769 0 -18.951003944933063 -37.93510690561732 0
          23.77908201111339 -25.727634747998636 0 32.285914726045576 -31.45240287607238 0
          -18.732306147503376 38.172541468590836 0 17.42129460906331 23.929755673071398 0
          -43.74567596165927 -36.843843838172035 0 -41.00470913383489 -49.1685554695042 0
          -4.3489588147394045 13.430332075080756 0 2.9762992276979077 -0.21305715242312573 0
          -16.420210149222868 -24.717665071237764 0 -26.63245586108499 -32.68369682188443 0
          9.59810303037343 22.68931438280859 0 37.757309281314306 20.71597266757422 0
          -26.523439665569285 -2.200425364398683 0 -48.17882370239545 24.733119867345934 0
          15.472358145094617 -42.19330576503555 0 -2.7230899171649696 49.647506705142575 0
          3.209752212846098 39.943600631846664 0 27.290092728339346 -29.624030405099575 0
          40.710862227344634 -12.518743865476708 0 34.808888796398136 -17.330075407408792 0
          -17.326333983387784 15.921061981020685 0 8.676498234140595 -45.101679767889145 0
          26.99656655139428 -0.8247828969564566 0 -1.181598492863479 -7.087342925864128 0
          -10.527228461045638 27.645380145270124 0 47.47543864880045 24.850515939083976 0
          13.45020038299144 -42.781974126121774 0 13.33632968921519 2.89206325620421 0
          -20.383234879262602 -17.467213088655853 0 13.111992425538233 49.45054225750374 0
          1.6047826830209004 22.445391370448775 0 -25.442525168919026 -16.766088433362327 0
          24.860911549332883 18.296648546241826 0 18.127137052491975 -42.11576276898946 0
          -4.106371249565804 19.81468592825003 0 -43.2115168522386 -43.085994704941484 0
          2.7042817825837204 -23.795120132132308 0 -1.6624837545658195 -36.91945356486498 0
          -40.55592314206473 -37.96183180819797 0 46.98372058379586 25.62816454897687 0
          -23.182362140209666 22.4905983535036 0 -8.42374893276238 -2.5281598168396826 0
          -44.45585735866184 11.374414308737222 0 -0.9380815156004232 40.44748670579848 0
          43.5214270198436 41.82766196839604 0 -19.617472876146607 29.010177679462174 0
          -27.377259211045168 -5.104813753149479 0 1.0108912986547693 -26.93680745999526 0
          21.18807799653547 48.4452609761332 0 15.521324819791857 -22.733301715898534 0
          -3.0984436752635744 -49.699879474370995 0 -5.357606698271908 47.09441502974741 0
          -19.533649987483585 -28.48909553641595 0 -25.241492794096537 30.645102659141713 0
          -1.3628901407151872 -9.249808436218693 0 -28.437070584076316 4.0252086974848424 0
          22.302423751473526 -21.630608392707323 0 4.286209731170565 25.592468486596516 0
          -16.80227135673981 30.176297340482108 0 35.70724318896097 -48.51082997011254 0
          38.494266527440914 9.308694076898924 0 -41.37827709570729 42.48759424258512 0
          41.371957205314274 48.07567751376408 0 40.00221093710812 44.971458396046486 0
          43.45219546574209 -49.16757290067578 0 27.77940311086799 -47.40411222574361 0
          8.787704962513757 14.978077069606684 0 -17.176354508003442 -38.89206379839693 0
          -37.572734230027905 47.39150589914381 0 3.322947059262674 16.230028184641725 0
          20.82576325094061 -43.12614201683975 0 -29.404442159877867 -6.6570323329381935 0
          -48.88074135310182 -43.07374742736768 0 -15.693819004659524 -18.776991949103287 0
          49.2742614956165 -23.093566379026992 0 35.70662412955289 -14.438908494432013 0
          24.676827977366614 34.48562696853686 0 -28.28613766609157 46.49521791482232 0
          21.219265309149932 48.266786794162286 0 25.989900495501132 -30.673962513745963 0
          -14.741048879365302 -30.369965831724773 0 33.206792723445574 45.25947670903301 0
          26.73700517552618 36.1968809297727 0 -4.433626259916984 -16.731616061562868 0
          33.82599634129042 5.430878965379037 0 -37.91344272052366 -28.781627030961573 0
          -0.8760744559602713 -9.034520229977083 0 25.951148963832622 -14.29357740625877 0
          27.17860558051683 48.15404052238152 0 34.61617221348607 33.462162550860555 0
          -13.28055184508198 -44.93740558320786 0 47.55616001461492 34.25892934866374 0
          36.946038841117556 -42.45015674570037 0 -46.76239316488481 11.393180618063838 0
          23.568028568935404 11.552780427737098 0 16.263007945057282 45.12644264060411 0
          -23.411248530157515 41.93857265065735 0 -38.160345232049345 -18.69342940760771 0
          37.21153998486223 -26.635630373860984 0 30.80584946405935 5.653176675427417 0
          44.35923105765637 0.370346282237378 0 16.64168251311186 -34.7034267378138 0
          47.322877480901255 13.376690736606477 0 -32.1350217035443 -42.58571958176201 0
          -0.5025219679409361 28.59799073613067 0 -3.5320261053794297 38.30316610148137 0
          14.736889949280638 40.32409694969634 0 -49.402638529229115 19.356180838194604 0
          8.508964450503598 -39.46387075781778 0 49.03198966734128 -27.000797471280585 0
          -16.70921662991016 18.938285128010065 0 46.14207459237997 -27.3400906744995 0
          42.424140585792586 37.62461911345025 0 -6.825547086494495 -2.911259141055119 0
          6.210247997996007 33.76154121673389 0 -35.16911208657487 13.927818279591207 0
          49.5593687100304 13.93941034113417 0 -6.0481675260535965 -47.161165000275155 0
          -41.68490984500472 3.0367185203014984 0 28.200151364646487 23.664522522360798 0
          -30.983903256438072 -23.817273645282434 0 -4.775523168997552 -3.9973115200368454 0
          17.36371431475763 -32.304692769073746 0 -31.21691646176371 -40.35131875297581 0
          -17.61253928181918 -32.96735050248542 0 -47.52659271635095 33.064298464373394 0
          -25.51716157275273 -35.79649925661745 0 -34.4558032257712 -19.698927528483058 0
          -46.64276824331557 -9.071061809886274 0 28.312364537561464 -5.662808823633235 0
          -48.25117889494449 -21.421563451189467 0 45.139670111270334 -32.86849758057289 0
          <InformationKey name="L2_NORM_RANGE" location="vtkDataArray" length="2">
            <Value index="0">
              2.9839152875
            </Value>
            <Value index="1">
              65.61664054
            </Value>
          </InformationKey>
        </DataArray>
        <DataArray type="Float64" Name="force" NumberOfComponents="3" format="ascii" RangeMin="0.49999999999999994" RangeMax="0.5">
          -0.451261686857513 -0.21532043557106204 0 -0.044117552977175394 -0.4980498383889971 0
          -0.2074205987998348 -0.4549469146983173 0 -0.05371460912898066 0.4971063676579901 0
          -0.19344848915124407 0.4610614731736984 0 0.43680670437901536 0.24331030189768676 0
          0.47035649314141165 -0.16960179645190435 0 0.4643132686229522 0.18550792053351853 0
          0.49995450397935787 0.006744920366783685 0 -0.20406259273966806 -0.45646298671892815 0
          -0.3910528324377531 0.3115729164134948 0 -0.47699816784635435 -0.14990913204745454 0
          0.04756583307562986 -0.4977323492840518 0 -0.13425556324622004 0.48163829139452796 0
          0.3875580635097035 0.3159093974680218 0 0.49282766727338084 0.08438536822149809 0
          -0.4053294271338843 -0.29275938157353243 0 -0.4953720668758929 0.06787131469999574 0
          0.43120833250665747 -0.2530995337349082 0 -0.49952502032479656 -0.0217888519548773 0
          0.418412452012624 0.27373531010957214 0 0.44369336882229754 -0.2305128943532675 0
          -0.322281159847376 -0.3822758872953277 0 0.3209893235397197 0.38336125804978405 0
          -0.4708708798249903 -0.16816841122172593 0 -0.2970825162729195 0.40217157846490165 0
          0.48306980928034066 -0.1290099196257998 0 0.4977077380174598 -0.04782266740305848 0
          -0.48079740264893206 -0.13723650245485228 0 0.0013371314778009658 -0.4999982120762144 0
          0.2831498226007778 0.4120997184676884 0 -0.499821275883245 0.013367579229055947 0
          -0.49240545333811603 0.08681514569984011 0 0.11317606547024243 0.48702276969837394 0
          0.45524820454731046 -0.2067584877494759 0 0.06629865878305834 0.4955849955795349 0
          0.32133631215397707 0.38307045630181635 0 -0.09420402055986235 -0.49104541797104373 0
          -0.4975850474743605 -0.049082792605335865 0 0.45398175757385145 -0.20952461380505344 0
          -0.09480490540412768 0.4909297606698074 0 0.24890079493566036 -0.43364547072510323 0
          0.34487023402339106 -0.36202834375867793 0 -0.49832261680209444 -0.0409215051472074 0
          0.1436760209616235 0.4789125191521257 0 -0.3402946369764646 0.36633258119508855 0
          0.42283700229596216 -0.266849900673327 0 -0.26797920417594606 0.4221221933625696 0
          -0.13684033048768993 -0.4809103075959381 0 -0.4938909393589684 0.07792137074715662 0
          0.3701480529299139 -0.3361404749687155 0 0.4026814411980627 -0.29639105403950905 0
          0.4652514456514629 -0.1831422734357741 0 0.15424413333618267 0.4756140739416464 0
          -0.2116477076579486 0.45299585852757585 0 -0.47291576190300194 0.16232893193667972 0
          -0.4976405475245235 -0.048516857477504116 0 0.2620951872029893 0.42580055524274507 0
          -0.2866551046868314 -0.40966919698334864 0 0.34936936815466013 -0.3576884742275232 0
          -0.3987192662775485 -0.3017000939660003 0 -0.313774637737998 -0.3892884235530105 0
          -0.3369111014972821 -0.3694467616421723 0 0.4502808022933695 -0.21736420838316386 0
          0.4048473140501521 -0.2934257185496484 0 -0.48604900178760624 -0.11728754350429343 0
          0.48929090570651734 -0.10292914841237129 0 -0.48596058545894 -0.11765334411058723 0
          -0.3900236344574637 0.31286029560267115 0 0.488278508911592 -0.10762944641255164 0
          -0.11000678598160667 0.48774840546945614 0 -0.12712125449674902 0.48357024996909476 0
          0.02326752060976582 0.4994583290772856 0 0.06841070328097099 0.49529786560876976 0
          0.05839846522381434 -0.4965779085496081 0 -0.45464522799697826 -0.2080810338776114 0
          -0.4484636375796199 -0.22108904488656902 0 0.38194621644170174 -0.32267179570868715 0
          -0.30123570012606227 0.3990702356347327 0 0.25216479226716765 -0.43175562247741045 0
          -0.42192474841669614 0.26828996752302847 0 0.4476650034186947 -0.2227016944572719 0
          -0.24423106601798925 -0.43629254679826535 0 -0.49379535689097404 -0.07852480826411226 0
          -0.4885645890248731 -0.10632329166723944 0 -0.026377177941010802 0.4993037597333594 0
          -0.4808762933879686 -0.13695981329371165 0 0.17146631586172345 -0.4696800001328646 0
          0.4319179595432184 -0.2518866336747998 0 -0.038054580097637646 0.4985497456960463 0
          -0.2172385123586733 -0.4503414579496213 0 -0.4033783976759389 -0.2954418187873749 0
          -0.46851676557634714 -0.17461970213546402 0 0.17022521451830042 -0.4701312331064578 0
          0.16106231356074105 0.4733486359444395 0 0.49862053681804525 0.03711549896316053 0
          -0.48701269300213884 0.11321941907113144 0 0.4645607705915013 -0.18488723705932353 0
          -0.4474424313564969 -0.2231485393673608 0 0.37064330608020607 -0.3355943081429342 0
          -0.30367406832212773 0.39721790018664527 0 0.3059602518725857 -0.3954596367191776 0
          -0.384042618874511 -0.3201738073109777 0 0.46409197089470666 -0.18606085711687653 0
          -0.3654623678554503 0.34122903991525627 0 -0.48650305883061556 0.11538966049198096 0
          0.48254693628717993 0.13095210681717315 0 0.2976685063814765 -0.40173804936627655 0
          0.2183306960954012 -0.44981296906880924 0 -0.4567585912345863 -0.20340007210764732 0
          -0.22304726602254715 0.44749292410033376 0 -0.12142007954457358 -0.48503315792158935 0
          0.15268328578541246 -0.47611743744770585 0 0.4426846642161219 -0.2324441611825502 0
          0.07705003768424734 -0.4940276223986429 0 0.16449115833147 -0.4721680408824503 0
          -0.26881871410080027 -0.4215880678448955 0 -0.3797615941144478 -0.32524011381693585 0
          -0.41961800223407497 0.2718836740245428 0 0.1451630630785053 -0.47846388068240414 0
          0.46804609184686247 0.17587738884483808 0 0.23507797854234083 -0.4412916767903591 0
          0.19254884613278364 -0.4614379068227204 0 -0.07067386198255791 0.4949800048814804 0
          0.1808235636249023 -0.46615752577641706 0 -0.13284958332966937 -0.48202799525456325 0
          -0.48716242288891237 -0.11257341482341422 0 0.41226891404789057 -0.28290341551450565 0
          -0.4461010828178733 0.22581812130278855 0 -0.4918328132116954 0.09000268800580094 0
          0.17409683398460776 0.468711310292952 0 0.3290509976934356 0.37646439528454034 0
          0.4270573957425989 0.26004226722121404 0 -0.46478415558270914 0.18432495414150524 0
          -0.4360199601997768 0.24471737639036803 0 -0.4675944187381374 -0.1770747287586329 0
          0.2583326055784038 0.42809375713162745 0 0.4108667166214488 0.2849360299658681 0
          -0.44203360196867697 -0.23367989800279626 0 0.30817142897006045 0.3937389622155153 0
          0.2105086098087164 -0.4535263224956205 0 0.49998831374082353 0.0034184971270768906 0
          -0.4309594654077599 0.25352305452454965 0 0.45377793812025713 0.20996567070673264 0
          0.4999967006974257 0.0018163952457884258 0 -0.37209703620388407 -0.3339817295126866 0
          0.21134789810312457 0.4531358140418734 0 -0.4501504707490019 0.2176339901863953 0
          -0.40412604392973767 0.2944183089036749 0 0.30434695284133917 0.3967025740982678 0
          0.17237274768354294 -0.46934809667881433 0 0.15172676206111754 0.4764231204239033 0
          0.30633415135435804 0.39517007441607377 0 0.05689344275064406 -0.4967525905035415 0
          <InformationKey name="L2_NORM_RANGE" location="vtkDataArray" length="2">
            <Value index="0">
              0.5
            </Value>
            <Value index="1">
              0.5
            </Value>
          </InformationKey>
        </DataArray>
        <DataArray type="Float64" Name="radius" format="ascii" RangeMin="1" RangeMax="1">
          1 1 1 1 1 1
          1 1 1 1 1 1
          1 1 1 1 1 1
          1 1 1 1 1 1
          1 1 1 1 1 1
          1 1 1 1 1 1
          1 1 1 1 1 1
          1 1 1 1 1 1
          1 1 1 1 1 1
          1 1 1 1 1 1
          1 1 1 1 1 1
          1 1 1 1 1 1
          1 1 1 1 1 1
          1 1 1 1 1 1
          1 1 1 1 1 1
          1 1 1 1 1 1
          1 1 1 1 1 1
          1 1 1 1 1 1
          1 1 1 1 1 1
          1 1 1 1 1 1
          1 1 1 1 1 1
          1 1 1 1 1 1
          1 1 1 1 1 1
          1 1 1 1 1 1
          1 1 1 1 1 1
          1 1 1 1
        </DataArray>
      </PointData>
      <CellData>
      </CellData>
      <Points>
        <DataArray type="Float32" Name="Points" NumberOfComponents="3" format="ascii" RangeMin="1.755405374945305" RangeMax="68.02956439567043">
          -36.84529113769531 33.66366958618164 0 47.084678649902344 -27.859743118286133 0
          -19.06137466430664 4.501949310302734 0 -30.96457290649414 49.382118225097656 0
          49.57815170288086 46.58356475830078 0 22.802967071533203 48.218849182128906 0
          -38.985721588134766 29.714500427246094 0 -20.13101577758789 -49.53875732421875 0
          -38.26224136352539 13.673352241516113 0 37.57732009887695 0.2571985721588135 0
          29.711929321289062 -13.852933883666992 0 -28.671798706054688 18.181982040405273 0
          -10.05618667602539 23.953960418701172 0 -2.800431489944458 -7.936607837677002 0
          -32.64533615112305 -19.56316566467285 0 29.551286697387695 -18.490381240844727 0
          37.30279541015625 -35.35799789428711 0 49.30344009399414 31.976009368896484 0
          -37.449676513671875 26.34496307373047 0 -1.0398733615875244 16.057781219482422 0
          -37.51019287109375 -28.842796325683594 0 -45.03369140625 -46.36650848388672 0
          -8.851966857910156 -4.041900634765625 0 -1.269182801246643 29.213146209716797 0
          42.27775192260742 30.619211196899414 0 20.9334716796875 -49.549747467041016 0
          20.633081436157227 14.276039123535156 0 -4.291162490844727 27.378324508666992 0
          7.466371059417725 37.74348068237305 0 31.062191009521484 -48.12715148925781 0
          32.19172668457031 32.132728576660156 0 44.17446517944336 -8.606162071228027 0
          -7.800901412963867 8.23524284362793 0 -34.18585968017578 26.0844783782959 0
          -26.607955932617188 30.768436431884766 0 49.0227165222168 -16.837116241455078 0
          -20.111984252929688 -48.42990493774414 0 -28.576753616333008 40.69239807128906 0
          34.99276351928711 45.430747985839844 0 27.97658348083496 48.7614860534668 0
          -43.22721862792969 29.198524475097656 0 9.36939811706543 23.306659698486328 0
          19.371652603149414 17.74898338317871 0 -10.774636268615723 6.019069671630859 0
          -29.351255416870117 2.4935824871063232 0 -9.57550048828125 -14.844084739685059 0
          9.44609546661377 -14.41217041015625 0 46.632286071777344 -34.54233932495117 0
          -10.68148136138916 -11.592806816101074 0 22.63254165649414 -11.28164005279541 0
          42.95238494873047 -6.144968509674072 0 36.22501754760742 11.94490909576416 0
          -37.70463943481445 -2.683413505554199 0 -15.93036937713623 2.99546217918396 0
          21.37876319885254 48.87120056152344 0 22.018768310546875 41.3479118347168 0
          0.4383372366428375 5.984531879425049 0 0.44256582856178284 -3.55159330368042 0
          4.8453450202941895 -5.195137977600098 0 35.37133026123047 10.323443412780762 0
          0.12147042155265808 47.68736267089844 0 -46.85089874267578 47.90559005737305 0
          -13.523923873901367 17.76803207397461 0 -15.036346435546875 35.494422912597656 0
          -45.287742614746094 16.157148361206055 0 24.963680267333984 -36.752742767333984 0
          48.49636459350586 -40.41527557373047 0 -21.868194580078125 30.296789169311523 0
          -42.63847351074219 12.785725593566895 0 -49.33647155761719 18.100454330444336 0
          3.2604598999023438 -5.94492244720459 0 -29.818269729614258 -36.05015563964844 0
          -11.763143539428711 26.290489196777344 0 -45.64440155029297 -24.513660430908203 0
          0.5259351134300232 32.75105667114258 0 48.35962677001953 32.3370361328125 0
          -19.470579147338867 -44.93804168701172 0 -24.991544723510742 4.277782917022705 0
          38.75196075439453 -15.62769603729248 0 -46.994510650634766 -33.60826110839844 0
          37.85523223876953 -28.854150772094727 0 -22.906049728393555 -0.6687729358673096 0
          -27.462499618530273 -0.9408683180809021 0 45.229393005371094 15.204383850097656 0
          25.62218475341797 -6.460995674133301 0 5.391522407531738 -44.44015121459961 0
          -17.61294937133789 -9.75829792022705 0 40.80868911743164 30.74410057067871 0
          -24.136079788208008 -36.759761810302734 0 -0.9065384268760681 -12.008148193359375 0
          21.58709144592285 -21.305822372436523 0 12.389548301696777 30.936370849609375 0
          -19.00160789489746 -11.794352531433105 0 -15.646629333496094 31.51055335998535 0
          16.95949935913086 -12.14387321472168 0 -4.180559158325195 -19.66172218322754 0
          40.831546783447266 -1.0869252681732178 0 25.77992820739746 -39.167144775390625 0
          -10.642349243164062 36.97190856933594 0 -14.095331192016602 41.64374542236328 0
          4.564522743225098 -35.86125946044922 0 -30.007001876831055 45.03690719604492 0
          48.97364807128906 -26.0277156829834 0 -48.3204460144043 -11.27218246459961 0
          28.070354461669922 -2.1253280639648438 0 4.199307441711426 -48.036685943603516 0
          40.06276321411133 -30.326452255249023 0 38.83576965332031 -5.782801628112793 0
          -34.96038055419922 -25.91628074645996 0 29.922292709350586 -2.793855905532837 0
          -41.19062423706055 14.427818298339844 0 13.424023628234863 8.394474029541016 0
          22.67850112915039 -14.707229614257812 0 18.065654754638672 21.09832191467285 0
          -33.58070373535156 -36.95705032348633 0 -5.2280778884887695 -46.02602767944336 0
          29.750198364257812 -33.47030258178711 0 33.42299270629883 -17.32497215270996 0
          15.758781433105469 -8.228263854980469 0 27.852188110351562 -38.91921615600586 0