<?xml version="1.0"?>
<VTKFile type="PolyData" version="0.1" byte_order="LittleEndian" header_type="UInt32" compressor="vtkZLibDataCompressor">
  <PolyData>
    <Piece NumberOfPoints="154" NumberOfVerts="0" NumberOfLines="0" NumberOfStrips="0" NumberOfPolys="0">
      <PointData>
        <DataArray type="Int32" Name="id" format="ascii" RangeMin="0" RangeMax="153">
          0 1 2 3 4 5
          6 7 8 9 10 11
          12 13 14 15 16 17
          18 19 20 21 22 23
          24 25 26 27 28 29
          30 31 32 33 34 35
          36 37 38 39 40 41
          42 43 44 45 46 47
          48 49 50 51 52 53
          54 55 56 57 58 59
          60 61 62 63 64 65
          66 67 68 69 70 71
          72 73 74 75 76 77
          78 79 80 81 82 83
          84 85 86 87 88 89
          90 91 92 93 94 95
          96 97 98 99 100 101
          102 103 104 105 106 107
          108 109 110 111 112 113
          114 115 116 117 118 119
          120 121 122 123 124 125
          126 127 128 129 130 131
          132 133 134 135 136 137
          138 139 140 141 142 143
          144 145 146 147 148 149
          150 151 152 153
        </DataArray>
        <DataArray type="Float64" Name="director" NumberOfComponents="3" format="ascii" RangeMin="0.9999999999999999" RangeMax="1">
          -0.9999923852813833 -0.0039024837282507587 0 0.3829378691726757 -0.9237741002829051 0
          -0.7068038571882326 -0.7074095754680145 0 0.2859047685878551 0.9582580358644143 0
          -0.9978426313093856 0.06565122345822308 0 -0.2865297447325717 0.9580713467083165 0
          0.8533325192346041 0.5213670603487759 0 0.8844467200748122 0.4666411890831185 0
          0.978955206443819 -0.20407524047894623 0 -0.4586985067106459 -0.8885919648192997 0
          -0.6781165686880583 0.7349543654341636 0 -0.9992210542005379 0.0394624485095098 0
          -0.508294666188081 -0.8611832164671739 0 -0.26365675304180214 0.9646165645350769 0
          0.736386374028281 0.6765612375428264 0 0.8761127280576533 -0.4821063033557812 0
          -0.9318486443323977 -0.3628472186139405 0 -0.8880511039070635 0.4597447518454624 0
          0.9998554804230854 0.017000537283310333 0 -0.9636690324863957 -0.26709922468388786 0
          0.6474544943265739 0.7621041121633714 0 0.5144017021691111 -0.8575493506530811 0
          -0.9264687313184051 -0.3763717442758753 0 0.6998314335182797 0.7143080320560239 0
          -0.9463549883344422 -0.32312882269230914 0 -0.9267667221103303 0.3756373820440051 0
          0.9788970632308893 -0.2043539566486058 0 0.493484449037434 0.8697546197395103 0
          -0.8934680076880007 -0.4491268409236245 0 -0.4696038433961925 -0.8828772452994381 0
          0.7464544921921855 0.6654364666037671 0 -0.9594500349603506 -0.2818787512647626 0
          -0.9980263157169804 0.0627970790434559 0 -0.24428861021519582 0.9697025703374866 0
          0.9930002025895653 -0.11811264816725688 0 0.21803402282765483 0.9759411687645878 0
          0.6332350008089286 0.7739595814708389 0 -0.7375274462661583 -0.6753171595658732 0
          -0.9611715933577333 -0.27595138724448603 0 0.9998714802791115 0.016031934520148044 0
          -0.1481146672862149 0.9889701943611313 0 0.9620416020121926 -0.27290283252068703 0
          -0.10005635631231721 -0.9949817714719715 0 -0.9182494511522643 -0.39600245637945913 0
          0.6693949328848088 0.7429067396572347 0 -0.7575777622241247 0.6527449227558095 0
          0.38106807446074253 -0.9245469823793607 0 -0.9991875405268111 -0.04030209493291973 0
          -0.8967617225711623 -0.4425137432116678 0 -0.4036399684681686 0.9149179066205972 0
          0.7425157334161668 -0.6698286240744359 0 0.9933515355241916 -0.11512048849675165 0
          0.9575949248658637 -0.28811796172946375 0 0.2605428161449712 0.9654622939065242 0
          -0.5139691407554102 0.8578086746770198 0 -0.9495223118513851 0.3136995047755112 0
          -0.7444363724734303 -0.6676934081886687 0 -0.5724333360846072 0.8199512642462643 0
          -0.5325008657723741 -0.8464294583435007 0 0.9235741628763464 -0.38341982951753545 0
          -0.9948909559330275 0.10095536539811452 0 -0.34371751303935766 -0.9390730915269796 0
          -0.5762951535016335 -0.8172416387155813 0 0.9965579298431417 -0.082899291111274 0
          0.6708600815988284 -0.7415839473162923 0 -0.9997149649862038 -0.023874437849575506 0
          0.9257361971470998 -0.37816992647700853 0 -0.8847908354536863 -0.46598838772781426 0
          -0.3178698589154635 0.9481343537669454 0 0.9511316346198359 -0.30878570825962637 0
          0.6700838743563554 0.7422853907545103 0 -0.29597521196215665 0.9551956207520826 0
          0.07601715452637127 0.9971065099665701 0 -0.44105660403174307 0.8974792878055662 0
          -0.29739826973067623 -0.954753512253922 0 -0.9762076654536842 0.21683771330067989 0
          -0.9778233643822263 0.20943129677348593 0 0.39126678259769254 -0.9202772977943388 0
          -0.711375212599454 0.7028124265400275 0 -0.11623294606682624 -0.9932219803491192 0
          -0.08645960906905963 0.9962553568235533 0 0.9388888600925437 -0.34422043575901184 0
          -0.7748288642009448 -0.6321710458420837 0 -0.8852778293902253 -0.4650625385796315 0
          -0.9138797020696696 0.4059850861116106 0 0.21964862540584512 0.9755790492611671 0
          -0.9997624234596307 0.021796711635609128 0 -0.49687868492859955 -0.867820011559785 0
          0.8472607949613483 0.5311771317757045 0 0.4407333855218841 0.8976380578420338 0
          0.6989792453245404 -0.7151419541640218 0 -0.03546606833333138 -0.9993708811031946 0
          -0.8362731353688992 -0.5483130885363495 0 0.12491091950587685 -0.992167960674097 0
          0.36235177160848564 0.9320414119620393 0 0.9877149984654884 -0.15626606095477116 0
          -0.7973257766612784 0.6035491743607055 0 0.996910270618834 -0.07854878951761854 0
          -0.8170849806796968 -0.5765172454902451 0 0.8048279152321061 -0.5935082365588045 0
          -0.5352840295274175 0.84467213031619 0 0.7034378600889967 -0.710756763593153 0
          -0.8376381389408691 -0.5462255469965472 0 0.9384603054599234 0.3453871090183697 0
          -0.18727831596034653 0.9823068931708953 0 -0.9091949900550883 0.41637059221170725 0
          0.9950137204889841 -0.09973813733306729 0 0.49933843672087314 -0.8664070207547689 0
          -0.5691888012648914 -0.8222068526317668 0 -0.982342964777167 -0.18708901505114023 0
          0.5580583495033393 0.8298017103800214 0 0.3678092344532747 -0.929901267367077 0
          0.34455331955862967 -0.938766749507634 0 0.9929878718745658 -0.11821626922729682 0
          -0.4605903067603948 -0.887612848779447 0 -0.2867492361101112 -0.9580056761785223 0
          -0.9977575140894795 0.06693237690372339 0 -0.9512259364105303 -0.30849508569815143 0
          -0.8847322827543612 0.4660995471487363 0 0.5384321485101028 -0.8426688682102802 0
          0.9978362981184571 0.06574741179129134 0 -0.3947571484857179 -0.9187854992975373 0
          0.9089816202783977 -0.4168361956405165 0 -0.33175254972639123 0.9433664429849296 0
          0.2768500052412181 -0.9609131462301562 0 -0.7132387022117115 -0.700921217874986 0
          -0.9704790525084287 0.2411854237766919 0 0.7483412416072098 -0.6633139423453871 0
          -0.5344956127929645 0.8451712488632546 0 -0.8090275251125599 0.587770757702564 0
          0.783223712505888 0.6217399908068438 0 0.6698810965163514 0.7424683942970575 0
          0.9516045705178543 0.3073251395013596 0 -0.8102230916429558 0.5861216100507901 0
          -0.7285774685164433 0.684963409511903 0 -0.9664810441903461 0.25673798164809636 0
          0.7705500666933525 0.6373794746607943 0 0.8071785573866983 0.5903073576494948 0
          -0.8094024055376295 -0.5872544132740926 0 0.2340205719667818 0.9722316451835644 0
          0.8355354960142015 -0.5494364703041673 0 0.9034920450543235 0.42860485825939526 0
          -0.756117653869567 0.6544357061673681 0 0.9613769211381528 0.2752352003340524 0
          0.56544622868164 -0.8247851614024773 0 -0.6958464369286841 -0.7181905988062326 0
          0.09334283695180208 0.9956340265327362 0 -0.9989764755412884 -0.04523274604869353 0
          -0.7146376558607174 0.6994948325941364 0 0.3059147822490592 0.952058898388913 0
          0.5077204170593574 -0.8615218964722093 0 0.3068484769211663 0.9517583791126614 0
          0.5958515073887675 0.803094627763462 0 -0.055901738564667784 -0.998436275195091 0
          <InformationKey name="L2_NORM_RANGE" location="vtkDataArray" length="2">
            <Value index="0">
              1
            </Value>
            <Value index="1">
              1
            </Value>
          </InformationKey>
        </DataArray>
        <DataArray type="Float64" Name="velocity" NumberOfComponents="3" format="ascii" RangeMin="2.98391528750295" RangeMax="65.61664053985334">
          20.472372037415383 -30.489259884928693 0 -7.778161120144524 43.605506408926914 0
          -35.778279556590725 14.318100471258902 0 -2.7267860528004704 -6.306708942777526 0
          -25.56803597993237 0.5919415230237348 0 40.69440930810454 -42.34960265147567 0
          21.390392053252754 11.720491675449018 0 -31.091580543867785 -10.301819378431787 0
          -22.233594277397 35.80993014386058 0 40.8936574712134 11.727908496204755 0
          -31.918129728714472 1.502371966558826 0 32.46317064138093 -14.067556233339687 0
          31.61170207931397 -20.66117562390716 0 -32.788218903188394 -0.7210412736466054 0
          -30.467523066969363 36.43074923190564 0 -29.58028331655805 11.627227611362315 0
          37.80505508071815 -10.753091333426255 0 44.65772551607054 -33.330173144632525 0
          47.18774005931614 6.396489460552942 0 9.836891189866492 -36.87781496106794 0
          6.677739541459459 5.438027088135769 0 -18.951003944933063 -37.93510690561732 0
          23.77908201111339 -25.727634747998636 0 32.285914726045576 -31.45240287607238 0
          -18.732306147503376 38.172541468590836 0 17.42129460906331 23.929755673071398 0
          -43.74567596165927 -36.843843838172035 0 -41.00470913383489 -49.1685554695042 0
          -4.3489588147394045 13.430332075080756 0 2.9762992276979077 -0.21305715242312573 0
          -16.420210149222868 -24.717665071237764 0 -26.63245586108499 -32.68369682188443 0
          9.59810303037343 22.68931438280859 0 37.757309281314306 20.71597266757422 0
          -26.523439665569285 -2.200425364398683 0 -48.17882370239545 24.733119867345934 0
          15.472358145094617 -42.19330576503555 0 -2.7230899171649696 49.647506705142575 0
          3.209752212846098 39.943600631846664 0 27.290092728339346 -29.624030405099575 0
          40.710862227344634 -12.518743865476708 0 34.808888796398136 -17.330075407408792 0
          -17.326333983387784 15.921061981020685 0 8.676498234140595 -45.101679767889145 0
          26.99656655139428 -0.8247828969564566 0 -1.181598492863479 -7.087342925864128 0
          -10.527228461045638 27.645380145270124 0 47.47543864880045 24.850515939083976 0
          13.45020038299144 -42.781974126121774 0 13.33632968921519 2.89206325620421 0
          -20.383234879262602 -17.467213088655853 0 13.111992425538233 49.45054225750374 0
          1.6047826830209004 22.445391370448775 0 -25.442525168919026 -16.766088433362327 0
          24.860911549332883 18.296648546241826 0 18.127137052491975 -42.11576276898946 0
          -4.106371249565804 19.81468592825003 0 -43.2115168522386 -43.085994704941484 0
          2.7042817825837204 -23.795120132132308 0 -1.6624837545658195 -36.91945356486498 0
          -40.55592314206473 -37.96183180819797 0 46.98372058379586 25.62816454897687 0
          -23.182362140209666 22.4905983535036 0 -8.42374893276238 -2.5281598168396826 0
          -44.45585735866184 11.374414308737222 0 -0.9380815156004232 40.44748670579848 0
          43.5214270198436 41.82766196839604 0 -19.617472876146607 29.010177679462174 0
          -27.377259211045168 -5.104813753149479 0 1.0108912986547693 -26.93680745999526 0
          21.18807799653547 48.4452609761332 0 15.521324819791857 -22.733301715898534 0
          -3.0984436752635744 -49.699879474370995 0 -5.357606698271908 47.09441502974741 0
          -19.533649987483585 -28.48909553641595 0 -25.241492794096537 30.645102659141713 0
          -1.3628901407151872 -9.249808436218693 0 -28.437070584076316 4.0252086974848424 0
          22.302423751473526 -21.630608392707323 0 4.286209731170565 25.592468486596516 0
          -16.80227135673981 30.176297340482108 0 35.70724318896097 -48.51082997011254 0
          38.494266527440914 9.308694076898924 0 -41.37827709570729 42.48759424258512 0
          41.371957205314274 48.07567751376408 0 40.00221093710812 44.971458396046486 0
          43.45219546574209 -49.16757290067578 0 27.77940311086799 -47.40411222574361 0
          8.787704962513757 14.978077069606684 0 -17.176354508003442 -38.89206379839693 0
          -37.572734230027905 47.39150589914381 0 3.322947059262674 16.230028184641725 0
          20.82576325094061 -43.12614201683975 0 -29.404442159877867 -6.6570323329381935 0
          -48.88074135310182 -43.07374742736768 0 -15.693819004659524 -18.776991949103287 0
          49.2742614956165 -23.093566379026992 0 35.70662412955289 -14.438908494432013 0
          24.676827977366614 34.48562696853686 0 -28.28613766609157 46.49521791482232 0
          21.219265309149932 48.266786794162286 0 25.989900495501132 -30.673962513745963 0
          -14.741048879365302 -30.369965831724773 0 33.206792723445574 45.25947670903301 0
          26.73700517552618 36.1968809297727 0 -4.433626259916984 -16.731616061562868 0
          33.82599634129042 5.430878965379037 0 -37.91344272052366 -28.781627030961573 0
          -0.8760744559602713 -9.034520229977083 0 25.951148963832622 -14.29357740625877 0
          27.17860558051683 48.15404052238152 0 34.61617221348607 33.462162550860555 0
          -13.28055184508198 -44.93740558320786 0 47.55616001461492 34.25892934866374 0
          36.946038841117556 -42.45015674570037 0 -46.76239316488481 11.393180618063838 0
          23.568028568935404 11.552780427737098 0 16.263007945057282 45.12644264060411 0
          -23.411248530157515 41.93857265065735 0 -38.160345232049345 -18.69342940760771 0
          37.21153998486223 -26.635630373860984 0 30.80584946405935 5.653176675427417 0
          44.35923105765637 0.370346282237378 0 16.64168251311186 -34.7034267378138 0
          47.322877480901255 13.376690736606477 0 -32.1350217035443 -42.58571958176201 0
          -0.5025219679409361 28.59799073613067 0 -3.5320261053794297 38.30316610148137 0
          14.736889949280638 40.32409694969634 0 -49.402638529229115 19.356180838194604 0
          8.508964450503598 -39.46387075781778 0 49.03198966734128 -27.000797471280585 0
          -16.70921662991016 18.938285128010065 0 46.14207459237997 -27.3400906744995 0
          42.424140585792586 37.62461911345025 0 -6.825547086494495 -2.911259141055119 0
          6.210247997996007 33.76154121673389 0 -35.16911208657487 13.927818279591207 0
          49.5593687100304 13.93941034113417 0 -6.0481675260535965 -47.161165000275155 0
          -41.68490984500472 3.0367185203014984 0 28.200151364646487 23.664522522360798 0
          -30.983903256438072 -23.817273645282434 0 -4.775523168997552 -3.9973115200368454 0
          17.36371431475763 -32.304692769073746 0 -31.21691646176371 -40.35131875297581 0
          -17.61253928181918 -32.96735050248542 0 -47.52659271635095 33.064298464373394 0
          -25.51716157275273 -35.79649925661745 0 -34.4558032257712 -19.698927528483058 0
          -46.64276824331557 -9.071061809886274 0 28.312364537561464 -5.662808823633235 0
          -48.25117889494449 -21.421563451189467 0 45.139670111270334 -32.86849758057289 0
          <InformationKey name="L2_NORM_RANGE" location="vtkDataArray" length="2">
            <Value index="0">
              2.9839152875
            </Value>
            <Value index="1">
              65.61664054
            </Value>
          </InformationKey>
        </DataArray>
        <DataArray type="Float64" Name="force" NumberOfComponents="3" format="ascii" RangeMin="0.49999999999999994" RangeMax="0.5">
          -0.4999961926406917 -0.0019512418641253794 0 0.19146893458633785 -0.46188705014145254 0
          -0.3534019285941163 -0.35370478773400726 0 0.14295238429392754 0.47912901793220714 0
          -0.4989213156546928 0.03282561172911154 0 -0.14326487236628585 0.47903567335415825 0
          0.42666625961730203 0.26068353017438795 0 0.4422233600374061 0.23332059454155926 0
          0.4894776032219095 -0.10203762023947312 0 -0.22934925335532294 -0.44429598240964985 0
          -0.3390582843440291 0.3674771827170818 0 -0.49961052710026893 0.0197312242547549 0
          -0.2541473330940405 -0.43059160823358694 0 -0.13182837652090107 0.48230828226753847 0
          0.3681931870141405 0.3382806187714132 0 0.43805636402882664 -0.2410531516778906 0
          -0.46592432216619883 -0.18142360930697024 0 -0.44402555195353177 0.2298723759227312 0
          0.4999277402115427 0.008500268641655167 0 -0.48183451624319784 -0.13354961234194393 0
          0.32372724716328694 0.3810520560816857 0 0.25720085108455554 -0.42877467532654057 0
          -0.46323436565920256 -0.18818587213793764 0 0.34991571675913985 0.35715401602801194 0
          -0.4731774941672211 -0.16156441134615457 0 -0.46338336105516514 0.18781869102200255 0
          0.48944853161544466 -0.1021769783243029 0 0.246742224518717 0.43487730986975515 0
          -0.44673400384400036 -0.22456342046181224 0 -0.23480192169809624 -0.44143862264971906 0
          0.37322724609609276 0.33271823330188355 0 -0.4797250174801753 -0.1409393756323813 0
          -0.4990131578584902 0.03139853952172795 0 -0.12214430510759791 0.4848512851687433 0
          0.49650010129478267 -0.05905632408362844 0 0.10901701141382741 0.4879705843822939 0
          0.3166175004044643 0.38697979073541944 0 -0.36876372313307915 -0.3376585797829366 0
          -0.48058579667886664 -0.13797569362224302 0 0.4999357401395558 0.008015967260074022 0
          -0.07405733364310745 0.49448509718056566 0 0.4810208010060963 -0.13645141626034352 0
          -0.050028178156158606 -0.49749088573598577 0 -0.45912472557613215 -0.19800122818972957 0
          0.3346974664424044 0.3714533698286174 0 -0.3787888811120623 0.32637246137790477 0
          0.19053403723037127 -0.46227349118968036 0 -0.49959377026340557 -0.020151047466459866 0
          -0.44838086128558113 -0.2212568716058339 0 -0.2018199842340843 0.4574589533102986 0
          0.3712578667080834 -0.33491431203721794 0 0.4966757677620958 -0.05756024424837582 0
          0.47879746243293186 -0.14405898086473187 0 0.1302714080724856 0.4827311469532621 0
          -0.2569845703777051 0.4289043373385099 0 -0.47476115592569257 0.1568497523877556 0
          -0.37221818623671515 -0.33384670409433437 0 -0.2862166680423036 0.40997563212313215 0
          -0.26625043288618705 -0.42321472917175035 0 0.4617870814381732 -0.19170991475876772 0
          -0.4974454779665137 0.05047768269905726 0 -0.17185875651967883 -0.4695365457634898 0
          -0.28814757675081676 -0.40862081935779065 0 0.49827896492157087 -0.041449645555637 0
          0.3354300407994142 -0.37079197365814615 0 -0.4998574824931019 -0.011937218924787753 0
          0.4628680985735499 -0.18908496323850427 0 -0.44239541772684315 -0.23299419386390713 0
          -0.15893492945773174 0.4740671768834727 0 0.4755658173099179 -0.15439285412981318 0
          0.3350419371781777 0.37114269537725514 0 -0.14798760598107832 0.4775978103760413 0
          0.038008577263185635 0.49855325498328507 0 -0.22052830201587154 0.4487396439027831 0
          -0.14869913486533812 -0.477376756126961 0 -0.4881038327268421 0.10841885665033994 0
          -0.48891168219111314 0.10471564838674297 0 0.19563339129884627 -0.4601386488971694 0
          -0.355687606299727 0.35140621327001376 0 -0.05811647303341312 -0.4966109901745596 0
          -0.04322980453452981 0.49812767841177663 0 0.46944443004627184 -0.17211021787950592 0
          -0.3874144321004724 -0.31608552292104186 0 -0.44263891469511263 -0.23253126928981574 0
          -0.4569398510348348 0.2029925430558053 0 0.10982431270292256 0.48778952463058356 0
          -0.49988121172981537 0.010898355817804564 0 -0.24843934246429977 -0.4339100057798925 0
          0.42363039748067416 0.26558856588785223 0 0.22036669276094206 0.4488190289210169 0
          0.3494896226622702 -0.3575709770820109 0 -0.01773303416666569 -0.4996854405515973 0
          -0.4181365676844496 -0.27415654426817476 0 0.062455459752938425 -0.4960839803370485 0
          0.18117588580424282 0.46602070598101963 0 0.4938574992327442 -0.07813303047738558 0
          -0.3986628883306392 0.30177458718035277 0 0.498455135309417 -0.03927439475880927 0
          -0.4085424903398484 -0.28825862274512254 0 0.40241395761605303 -0.29675411827940223 0
          -0.26764201476370875 0.422336065158095 0 0.35171893004449833 -0.3553783817965765 0
          -0.41881906947043457 -0.2731127734982736 0 0.4692301527299617 0.17269355450918486 0
          -0.09363915798017326 0.49115344658544763 0 -0.45459749502754415 0.20818529610585362 0
          0.49750686024449203 -0.04986906866653364 0 0.24966921836043657 -0.43320351037738447 0
          -0.2845944006324457 -0.4111034263158834 0 -0.4911714823885835 -0.09354450752557011 0
          0.27902917475166966 0.4149008551900107 0 0.18390461722663734 -0.4649506336835385 0
          0.17227665977931483 -0.469383374753817 0 0.4964939359372829 -0.05910813461364841 0
          -0.2302951533801974 -0.4438064243897235 0 -0.1433746180550556 -0.47900283808926114 0
          -0.4988787570447398 0.033466188451861695 0 -0.47561296820526516 -0.15424754284907571 0
          -0.4423661413771806 0.23304977357436815 0 0.2692160742550514 -0.4213344341051401 0
          0.49891814905922854 0.03287370589564567 0 -0.19737857424285896 -0.45939274964876864 0
          0.45449081013919884 -0.20841809782025825 0 -0.16587627486319562 0.4716832214924648 0
          0.13842500262060906 -0.4804565731150781 0 -0.35661935110585574 -0.350460608937493 0
          -0.48523952625421435 0.12059271188834594 0 0.3741706208036049 -0.33165697117269355 0
          -0.26724780639648227 0.4225856244316273 0 -0.40451376255627997 0.293885378851282 0
          0.391611856252944 0.3108699954034219 0 0.3349405482581757 0.37123419714852873 0
          0.47580228525892715 0.1536625697506798 0 -0.4051115458214779 0.29306080502539505 0
          -0.36428873425822167 0.3424817047559515 0 -0.48324052209517304 0.12836899082404818 0
          0.38527503334667623 0.3186897373303971 0 0.40358927869334915 0.2951536788247474 0
          -0.40470120276881477 -0.2936272066370463 0 0.1170102859833909 0.4861158225917822 0
          0.41776774800710076 -0.27471823515208366 0 0.45174602252716173 0.21430242912969763 0
          -0.3780588269347835 0.32721785308368406 0 0.4806884605690764 0.1376176001670262 0
          0.28272311434082 -0.41239258070123863 0 -0.34792321846434204 -0.3590952994031163 0
          0.04667141847590104 0.4978170132663681 0 -0.4994882377706442 -0.022616373024346766 0
          -0.3573188279303587 0.3497474162970682 0 0.1529573911245296 0.4760294491944565 0
          0.2538602085296787 -0.43076094823610467 0 0.15342423846058315 0.4758791895563307 0
          0.29792575369438373 0.401547313881731 0 -0.027950869282333892 -0.4992181375975455 0
          <InformationKey name="L2_NORM_RANGE" location="vtkDataArray" length="2">
            <Value index="0">
              0.5
            </Value>
            <Value index="1">
              0.5
            </Value>
          </InformationKey>
        </DataArray>
        <DataArray type="Float64" Name="radius" format="ascii" RangeMin="1" RangeMax="1">
          1 1 1 1 1 1
          1 1 1 1 1 1
          1 1 1 1 1 1
          1 1 1 1 1 1
          1 1 1 1 1 1
          1 1 1 1 1 1
          1 1 1 1 1 1
          1 1 1 1 1 1
          1 1 1 1 1 1
          1 1 1 1 1 1
          1 1 1 1 1 1
          1 1 1 1 1 1
          1 1 1 1 1 1
          1 1 1 1 1 1
          1 1 1 1 1 1
          1 1 1 1 1 1
          1 1 1 1 1 1
          1 1 1 1 1 1
          1 1 1 1 1 1
          1 1 1 1 1 1
          1 1 1 1 1 1
          1 1 1 1 1 1
          1 1 1 1 1 1
          1 1 1 1 1 1
          1 1 1 1 1 1
          1 1 1 1
        </DataArray>
      </PointData>
      <CellData>
      </CellData>
      <Points>
        <DataArray type="Float32" Name="Points" NumberOfComponents="3" format="ascii" RangeMin="3.112837453750207" RangeMax="67.47487223731135">
          -37.7459831237793 33.727882385253906 0 46.83367919921875 -28.25023078918457 0
          -19.560941696166992 4.525461196899414 0 -31.234649658203125 49.73262405395508 0
          48.84901809692383 46.54709243774414 0 22.433652877807617 48.62464904785156 0
          -40.05403518676758 29.622127532958984 0 -19.620162963867188 -50.2115592956543 0
          -39.032012939453125 13.22205638885498 0 37.75202560424805 0.8348713517189026 0
          29.68783187866211 -13.378881454467773 0 -29.21950912475586 18.076824188232422 0
          -10.445631980895996 24.02126121520996 0 -3.1886701583862305 -7.614993572235107 0
          -32.4434814453125 -19.519454956054688 0 28.90771484375 -18.44034767150879 0
          37.086814880371094 -35.018280029296875 0 48.812957763671875 31.254507064819336 0
          -37.66267013549805 26.33171272277832 0 -1.4021787643432617 15.579554557800293 0
          -38.24614715576172 -28.144201278686523 0 -45.040672302246094 -46.182640075683594 0
          -8.84860610961914 -4.117969036102295 0 -1.6084060668945312 29.564855575561523 0
          41.73119354248047 30.58344078063965 0 21.00489616394043 -49.81440353393555 0
          20.764957427978516 14.510587692260742 0 -4.319864749908447 26.99999237060547 0
          7.588323593139648 37.57789993286133 0 30.489566802978516 -47.7487907409668 0
          33.30326461791992 32.97740936279297 0 43.74727249145508 -8.51162338256836 0
          -7.752172470092773 7.516453742980957 0 -34.22891616821289 26.70355796813965 0
          -26.07863998413086 31.720314025878906 0 49.568946838378906 -17.94707679748535 0
          -20.229829788208008 -49.08145523071289 0 -29.221925735473633 40.77061462402344 0
          34.40928268432617 45.72740936279297 0 27.788082122802734 49.26203536987305 0
          -43.302162170410156 29.389667510986328 0 9.621757507324219 23.690580368041992 0
          19.540206909179688 18.31437110900879 0 -10.61807632446289 6.037380695343018 0
          -29.764280319213867 2.126558542251587 0 -9.403462409973145 -14.62016773223877 0
          9.147634506225586 -13.867584228515625 0 46.50033187866211 -34.89976501464844 0
          -10.767049789428711 -11.667570114135742 0 22.287933349609375 -11.687359809875488 0
          42.547298431396484 -6.392556190490723 0 35.15287780761719 12.009710311889648 0
          -37.266578674316406 -2.5404133796691895 0 -15.35960865020752 3.5993924140930176 0
          21.86001205444336 48.65822982788086 0 21.814058303833008 41.973960876464844 0
          0.849831223487854 6.125595569610596 0 0.5858871340751648 -3.6035196781158447 0
          4.764649868011475 -5.6045427322387695 0 34.9123420715332 11.020679473876953 0
          0.7449302077293396 47.77362060546875 0 -46.98713302612305 47.563236236572266 0
          -13.988093376159668 17.20772933959961 0 -15.367118835449219 35.662357330322266 0
          -45.22644805908203 15.16837215423584 0 24.367046356201172 -36.1143684387207 0
          48.088958740234375 -40.269065856933594 0 -21.89214324951172 30.498260498046875 0
          -42.3228759765625 13.303918838500977 0 -48.70897674560547 18.638696670532227 0
          3.1483514308929443 -5.912695407867432 0 -30.0632381439209 -35.30229949951172 0
          -11.070460319519043 26.604602813720703 0 -46.33897018432617 -24.57974624633789 0
          1.257339596748352 33.028324127197266 0 47.364376068115234 32.392276763916016 0
          -19.62662124633789 -43.807289123535156 0 -24.459257125854492 3.5957419872283936 0
          39.559043884277344 -15.024357795715332 0 -47.27442169189453 -33.553321838378906 0
          37.73861312866211 -29.88746452331543 0 -23.15340232849121 -0.45227354764938354 0
          -27.799253463745117 -0.628038227558136 0 44.32295227050781 15.640603065490723 0
          26.60960578918457 -6.480113506317139 0 4.996376991271973 -44.28847885131836 0
          -16.867887496948242 -8.615837097167969 0 40.81197738647461 31.163108825683594 0
          -24.536144256591797 -36.375526428222656 0 -1.5193266868591309 -11.697675704956055 0
          21.810821533203125 -21.33547592163086 0 11.829606056213379 31.569091796875 0
          -18.512386322021484 -11.640575408935547 0 -14.880712509155273 31.492456436157227 0
          17.92620086669922 -12.442800521850586 0 -4.671178340911865 -19.163057327270508 0
          40.699764251708984 -1.419473648071289 0 25.61305809020996 -38.469261169433594 0
          -10.06457805633545 37.223175048828125 0 -13.098886489868164 42.19408416748047 0
          5.181029319763184 -36.095855712890625 0 -29.508955001831055 45.00694274902344 0
          49.88957977294922 -26.85154151916504 0 -47.927730560302734 -11.536860466003418 0
          28.481616973876953 -2.9396884441375732 0 4.178452491760254 -48.51549530029297 0
          39.81382751464844 -30.118640899658203 0 38.500885009765625 -5.53743839263916 0
          -34.97600555419922 -25.81099510192871 0 29.07265853881836 -2.514133930206299 0
          -41.14982604980469 14.942874908447266 0 14.094554901123047 8.268038749694824 0
          21.696836471557617 -14.960186958312988 0 18.19335174560547 20.433067321777344 0
          -33.9190559387207 -36.547176361083984 0 -5.4370293617248535 -46.2105598449707 0
          30.177337646484375 -33.130672454833984 0 32.73012924194336 -16.732553482055664 0
          16.00041961669922 -8.190714836120605 0 27.63566780090332 -38.426700592041016 0