<?xml version="1.0"?>
<VTKFile type="PolyData" version="0.1" byte_order="LittleEndian" header_type="UInt32" compressor="vtkZLibDataCompressor">
  <PolyData>
    <Piece NumberOfPoints="154" NumberOfVerts="0" NumberOfLines="0" NumberOfStrips="0" NumberOfPolys="0">
      <PointData>
        <DataArray type="Int32" Name="id" format="ascii" RangeMin="0" RangeMax="153">
          0 1 2 3 4 5
          6 7 8 9 10 11
          12 13 14 15 16 17
          18 19 20 21 22 23
          24 25 26 27 28 29
          30 31 32 33 34 35
          36 37 38 39 40 41
          42 43 44 45 46 47
          48 49 50 51 52 53
          54 55 56 57 58 59
          60 61 62 63 64 65
          66 67 68 69 70 71
          72 73 74 75 76 77
          78 79 80 81 82 83
          84 85 86 87 88 89
          90 91 92 93 94 95
          96 97 98 99 100 101
          102 103 104 105 106 107
          108 109 110 111 112 113
          114 115 116 117 118 119
          120 121 122 123 124 125
          126 127 128 129 130 131
          132 133 134 135 136 137
          138 139 140 141 142 143
          144 145 146 147 148 149
          150 151 152 153
        </DataArray>
        <DataArray type="Float64" Name="director" NumberOfComponents="3" format="ascii" RangeMin="0.9999999999999999" RangeMax="1">
          -0.9991532235512072 0.04114408666177253 0 0.48679097418041545 -0.8735184871864373 0
          -0.6110940771888208 -0.7915579756560751 0 0.2175567970025507 0.9760476628105775 0
          -0.9469355607984733 0.32142346475526773 0 -0.2133660267585831 0.9769723325792065 0
          0.8357358167509383 0.5491317188067376 0 0.8949846179966944 0.4460970001572651 0
          0.9725747852644598 -0.23259038472772223 0 -0.39284052126998514 -0.919606614182568 0
          -0.6740613923933448 0.7386753273832457 0 -0.9928313939556717 0.11952331645347618 0
          -0.5398036277443902 -0.8417909737422918 0 -0.23117035109666043 0.9729132894425108 0
          0.7542195880718913 0.6566222757176814 0 0.827718258238983 -0.5611439075476309 0
          -0.9493328961403199 -0.3142722582504422 0 -0.9075959017695212 0.41984482739599105 0
          0.9996043521348167 -0.028127196681029115 0 -0.9572828771393027 -0.28915306177853056 0
          0.683681322493275 0.72978068573637 0 0.521010558762265 -0.8535502314792214 0
          -0.9063686554106062 -0.4224877045420019 0 0.6761168894988543 0.7367943754768993 0
          -0.8896034559440011 -0.45673372020520836 0 -0.9016354990649361 0.43249673620262563 0
          0.9578879404917049 -0.28714228783054596 0 0.5616100208081247 0.8274020694486435 0
          -0.843812302801779 -0.5366384235594381 0 -0.3941328573335594 -0.9190534754681493 0
          0.7359295665304258 0.6770581017212183 0 -0.9639067178891009 -0.26624019082073497 0
          -0.9996096792578503 -0.027937235618752727 0 -0.24620503399765697 0.9692177677045611 0
          0.9863547771919112 -0.16463369494333507 0 0.36667053266045085 0.9303508588046239 0
          0.670629213268213 0.7417927327166651 0 -0.765664354294173 -0.6432403101200104 0
          -0.9096588616088938 -0.41535617907575606 0 0.9983877271410765 -0.056762190708916756 0
          -0.14805907054809006 0.9889785192957609 0 0.9809596806211393 -0.19421149552915898 0
          -0.06051272684960487 -0.9981674257804776 0 -0.8806313366068287 -0.47380212007342304 0
          0.6292935572330308 0.7771676902863359 0 -0.7318176698065555 0.6815004755382811 0
          0.3391263311080516 -0.9407408418630457 0 -0.9988623672049045 -0.04768617600326549 0
          -0.8919586612086894 -0.45211696129962037 0 -0.4719172043568367 0.8816428711400255 0
          0.7207128732821588 -0.6932336938474463 0 0.9887654393549383 -0.14947543589913262 0
          0.984259251484404 -0.17673065910407534 0 0.12526571172258433 0.9921232289724067 0
          -0.5279874779072395 0.8492521552360949 0 -0.9609505336110782 0.2767202051758852 0
          -0.8185140043674699 -0.5744865748251472 0 -0.49798039768637237 0.8671882860833179 0
          -0.555767649429788 -0.8313376689692873 0 0.9100950660353346 -0.41439953037876365 0
          -0.9886550024871131 0.1502041479360886 0 -0.3069771415194411 -0.9517168878319608 0
          -0.5811512792781613 -0.8137955459409669 0 0.9686486976286437 -0.24843449958154423 0
          0.6837169975912994 -0.7297472625537824 0 -0.9999609108734465 0.008841760296857131 0
          0.8894641331690036 -0.45700498444318205 0 -0.8681130909829676 -0.4963664586411916 0
          -0.3260400228023105 0.9453559665708303 0 0.8588339998124012 -0.5122540002442466 0
          0.6472340832500411 0.7622913101167289 0 -0.22242601976202625 0.9749495708665258 0
          0.07878471726901286 0.99689165325267 0 -0.4850572980723801 0.8744823712269574 0
          -0.36247405144160094 -0.9319938637306104 0 -0.9857637784809105 0.16813617408231485 0
          -0.955095412635471 0.2962984184275699 0 0.3836469943960826 -0.9234798231097701 0
          -0.7410929864010238 0.6714024020713747 0 -0.16687442262400703 -0.9859781575034532 0
          0.0683926610323897 0.9976584806019085 0 0.9116393797679212 -0.4109910476596295 0
          -0.7870053183796336 -0.6169462122763796 0 -0.9027422329108874 -0.43018189283030633 0
          -0.924721646106149 0.3806440295377481 0 0.09737124001950398 0.9952481306775031 0
          -0.9930248672510713 0.11790510175981474 0 -0.49874355035812024 -0.866749601082214 0
          0.8423588455612334 0.5389170393527617 0 0.4277750335533581 0.9038852364478709 0
          0.7704597484148169 -0.637488647798984 0 -0.12424098389510595 -0.992252073780033 0
          -0.8348331063811807 -0.5505031194189077 0 0.21724105446839825 -0.9761179868506975 0
          0.3289770991844636 0.944337899383571 0 0.9999988584376258 -0.001511000809134157 0
          -0.8396630086343996 0.5431077535176866 0 0.9956426796974807 -0.09325049257145998 0
          -0.8300305911168256 -0.5577178657800492 0 0.7875941716225668 -0.6161943044415151 0
          -0.6243333854625522 0.7811580018132491 0 0.6909936520012362 -0.7228608253972506 0
          -0.8294087655750916 -0.5586421928096755 0 0.9328803134664857 0.36018650827962917 0
          -0.21238624164331976 0.9771857982802582 0 -0.883168577642097 0.4690557146711201 0
          0.9923317015670263 -0.123603374003666 0 0.5090352407978688 -0.8607456788307773 0
          -0.6064138345741175 -0.795149206902148 0 -0.9748384875726088 -0.2229123665191067 0
          0.5276859020340042 0.8494395733626726 0 0.34417637177671545 -0.9389050138915098 0
          0.40097383557420035 -0.9160895060991116 0 0.9987335115069524 -0.05031275179307939 0
          -0.47850676825649896 -0.8780838642935658 0 -0.19686071829846155 -0.9804314650147729 0
          -0.9948055738446777 0.1017932721134433 0 -0.9715419806917356 -0.23686743075733152 0
          -0.8801608609975642 0.4746755299865652 0 0.4572168883555294 -0.8893552254315973 0
          0.9745364018592482 0.22422935011106365 0 -0.3225755658085598 -0.9465437149668723 0
          0.8973455963698165 -0.4413285405179439 0 -0.33741408381916355 0.9413563278804018 0
          0.4593625567987802 -0.888248862319163 0 -0.6741670464813053 -0.7385789012953684 0
          -0.9818491703466717 0.18966340366436638 0 0.7675992153357685 -0.6409301401993142 0
          -0.4503872434162017 0.8928333164527157 0 -0.7832735771879251 0.6216771696622223 0
          0.8096435762060423 0.5869218683166358 0 0.5900475923534327 0.8073684652981669 0
          0.938241459151528 0.3459811618126218 0 -0.7546968818126603 0.6560736365548059 0
          -0.7261660125643828 0.6875193976873267 0 -0.9680496466670573 0.25075861219065937 0
          0.8440434856215105 0.5362747377789587 0 0.7876921528016835 0.616069048414745 0
          -0.8650422754459167 -0.5016989751747065 0 0.24064561848651128 0.9706130466376621 0
          0.895326034973088 -0.44541137288956684 0 0.9227481409029038 0.38540351381407356 0
          -0.7358274064713077 0.6771691279774269 0 0.991055029747394 0.13345384225413642 0
          0.7213904481181953 -0.6925285707924471 0 -0.7100214372140038 -0.7041800612745014 0
          -0.033505774479052924 0.99943852391058 0 -0.9999558065935831 0.009401322235555338 0
          -0.7684348994836765 0.6399279688023581 0 0.3078168443341825 0.9514456318382809 0
          0.4156521986941128 -0.909523638901568 0 0.2691589984527426 0.9630957551312935 0
          0.6199691411943863 0.7846261937806405 0 -0.03358641106204005 -0.9994358173449517 0
          <InformationKey name="L2_NORM_RANGE" location="vtkDataArray" length="2">
            <Value index="0">
              1
            </Value>
            <Value index="1">
              1
            </Value>
          </InformationKey>
        </DataArray>
        <DataArray type="Float64" Name="velocity" NumberOfComponents="3" format="ascii" RangeMin="2.98391528750295" RangeMax="65.61664053985334">
          20.472372037415383 -30.489259884928693 0 -7.778161120144524 43.605506408926914 0
          -35.778279556590725 14.318100471258902 0 -2.7267860528004704 -6.306708942777526 0
          -25.56803597993237 0.5919415230237348 0 40.69440930810454 -42.34960265147567 0
          21.390392053252754 11.720491675449018 0 -31.091580543867785 -10.301819378431787 0
          -22.233594277397 35.80993014386058 0 40.8936574712134 11.727908496204755 0
          -31.918129728714472 1.502371966558826 0 32.46317064138093 -14.067556233339687 0
          31.61170207931397 -20.66117562390716 0 -32.788218903188394 -0.7210412736466054 0
          -30.467523066969363 36.43074923190564 0 -29.58028331655805 11.627227611362315 0
          37.80505508071815 -10.753091333426255 0 44.65772551607054 -33.330173144632525 0
          47.18774005931614 6.396489460552942 0 9.836891189866492 -36.87781496106794 0
          6.677739541459459 5.438027088135769 0 -18.951003944933063 -37.93510690561732 0
          23.77908201111339 -25.727634747998636 0 32.285914726045576 -31.45240287607238 0
          -18.732306147503376 38.172541468590836 0 17.42129460906331 23.929755673071398 0
          -43.74567596165927 -36.843843838172035 0 -41.00470913383489 -49.1685554695042 0
          -4.3489588147394045 13.430332075080756 0 2.9762992276979077 -0.21305715242312573 0
          -16.420210149222868 -24.717665071237764 0 -26.63245586108499 -32.68369682188443 0
          9.59810303037343 22.68931438280859 0 37.757309281314306 20.71597266757422 0
          -26.523439665569285 -2.200425364398683 0 -48.17882370239545 24.733119867345934 0
          15.472358145094617 -42.19330576503555 0 -2.7230899171649696 49.647506705142575 0
          3.209752212846098 39.943600631846664 0 27.290092728339346 -29.624030405099575 0
          40.710862227344634 -12.518743865476708 0 34.808888796398136 -17.330075407408792 0
          -17.326333983387784 15.921061981020685 0 8.676498234140595 -45.101679767889145 0
          26.99656655139428 -0.8247828969564566 0 -1.181598492863479 -7.087342925864128 0
          -10.527228461045638 27.645380145270124 0 47.47543864880045 24.850515939083976 0
          13.45020038299144 -42.781974126121774 0 13.33632968921519 2.89206325620421 0
          -20.383234879262602 -17.467213088655853 0 13.111992425538233 49.45054225750374 0
          1.6047826830209004 22.445391370448775 0 -25.442525168919026 -16.766088433362327 0
          24.860911549332883 18.296648546241826 0 18.127137052491975 -42.11576276898946 0
          -4.106371249565804 19.81468592825003 0 -43.2115168522386 -43.085994704941484 0
          2.7042817825837204 -23.795120132132308 0 -1.6624837545658195 -36.91945356486498 0
          -40.55592314206473 -37.96183180819797 0 46.98372058379586 25.62816454897687 0
          -23.182362140209666 22.4905983535036 0 -8.42374893276238 -2.5281598168396826 0
          -44.45585735866184 11.374414308737222 0 -0.9380815156004232 40.44748670579848 0
          43.5214270198436 41.82766196839604 0 -19.617472876146607 29.010177679462174 0
          -27.377259211045168 -5.104813753149479 0 1.0108912986547693 -26.93680745999526 0
          21.18807799653547 48.4452609761332 0 15.521324819791857 -22.733301715898534 0
          -3.0984436752635744 -49.699879474370995 0 -5.357606698271908 47.09441502974741 0
          -19.533649987483585 -28.48909553641595 0 -25.241492794096537 30.645102659141713 0
          -1.3628901407151872 -9.249808436218693 0 -28.437070584076316 4.0252086974848424 0
          22.302423751473526 -21.630608392707323 0 4.286209731170565 25.592468486596516 0
          -16.80227135673981 30.176297340482108 0 35.70724318896097 -48.51082997011254 0
          38.494266527440914 9.308694076898924 0 -41.37827709570729 42.48759424258512 0
          41.371957205314274 48.07567751376408 0 40.00221093710812 44.971458396046486 0
          43.45219546574209 -49.16757290067578 0 27.77940311086799 -47.40411222574361 0
          8.787704962513757 14.978077069606684 0 -17.176354508003442 -38.89206379839693 0
          -37.572734230027905 47.39150589914381 0 3.322947059262674 16.230028184641725 0
          20.82576325094061 -43.12614201683975 0 -29.404442159877867 -6.6570323329381935 0
          -48.88074135310182 -43.07374742736768 0 -15.693819004659524 -18.776991949103287 0
          49.2742614956165 -23.093566379026992 0 35.70662412955289 -14.438908494432013 0
          24.676827977366614 34.48562696853686 0 -28.28613766609157 46.49521791482232 0
          21.219265309149932 48.266786794162286 0 25.989900495501132 -30.673962513745963 0
          -14.741048879365302 -30.369965831724773 0 33.206792723445574 45.25947670903301 0
          26.73700517552618 36.1968809297727 0 -4.433626259916984 -16.731616061562868 0
          33.82599634129042 5.430878965379037 0 -37.91344272052366 -28.781627030961573 0
          -0.8760744559602713 -9.034520229977083 0 25.951148963832622 -14.29357740625877 0
          27.17860558051683 48.15404052238152 0 34.61617221348607 33.462162550860555 0
          -13.28055184508198 -44.93740558320786 0 47.55616001461492 34.25892934866374 0
          36.946038841117556 -42.45015674570037 0 -46.76239316488481 11.393180618063838 0
          23.568028568935404 11.552780427737098 0 16.263007945057282 45.12644264060411 0
          -23.411248530157515 41.93857265065735 0 -38.160345232049345 -18.69342940760771 0
          37.21153998486223 -26.635630373860984 0 30.80584946405935 5.653176675427417 0
          44.35923105765637 0.370346282237378 0 16.64168251311186 -34.7034267378138 0
          47.322877480901255 13.376690736606477 0 -32.1350217035443 -42.58571958176201 0
          -0.5025219679409361 28.59799073613067 0 -3.5320261053794297 38.30316610148137 0
          14.736889949280638 40.32409694969634 0 -49.402638529229115 19.356180838194604 0
          8.508964450503598 -39.46387075781778 0 49.03198966734128 -27.000797471280585 0
          -16.70921662991016 18.938285128010065 0 46.14207459237997 -27.3400906744995 0
          42.424140585792586 37.62461911345025 0 -6.825547086494495 -2.911259141055119 0
          6.210247997996007 33.76154121673389 0 -35.16911208657487 13.927818279591207 0
          49.5593687100304 13.93941034113417 0 -6.0481675260535965 -47.161165000275155 0
          -41.68490984500472 3.0367185203014984 0 28.200151364646487 23.664522522360798 0
          -30.983903256438072 -23.817273645282434 0 -4.775523168997552 -3.9973115200368454 0
          17.36371431475763 -32.304692769073746 0 -31.21691646176371 -40.35131875297581 0
          -17.61253928181918 -32.96735050248542 0 -47.52659271635095 33.064298464373394 0
          -25.51716157275273 -35.79649925661745 0 -34.4558032257712 -19.698927528483058 0
          -46.64276824331557 -9.071061809886274 0 28.312364537561464 -5.662808823633235 0
          -48.25117889494449 -21.421563451189467 0 45.139670111270334 -32.86849758057289 0
          <InformationKey name="L2_NORM_RANGE" location="vtkDataArray" length="2">
            <Value index="0">
              2.9839152875
            </Value>
            <Value index="1">
              65.61664054
            </Value>
          </InformationKey>
        </DataArray>
        <DataArray type="Float64" Name="force" NumberOfComponents="3" format="ascii" RangeMin="0.49999999999999994" RangeMax="0.5">
          -0.4995766117756036 0.020572043330886264 0 0.24339548709020772 -0.43675924359321866 0
          -0.3055470385944104 -0.39577898782803755 0 0.10877839850127535 0.48802383140528877 0
          -0.47346778039923665 0.16071173237763386 0 -0.10668301337929155 0.48848616628960323 0
          0.41786790837546917 0.2745658594033688 0 0.4474923089983472 0.22304850007863256 0
          0.4862873926322299 -0.11629519236386111 0 -0.19642026063499257 -0.459803307091284 0
          -0.3370306961966724 0.36933766369162285 0 -0.49641569697783583 0.05976165822673809 0
          -0.2699018138721951 -0.4208954868711459 0 -0.11558517554833021 0.4864566447212554 0
          0.37710979403594563 0.3283111378588407 0 0.4138591291194915 -0.28057195377381544 0
          -0.47466644807015995 -0.1571361291252211 0 -0.4537979508847606 0.20992241369799552 0
          0.49980217606740834 -0.014063598340514558 0 -0.47864143856965136 -0.14457653088926528 0
          0.3418406612466375 0.364890342868185 0 0.2605052793811325 -0.4267751157396107 0
          -0.4531843277053031 -0.21124385227100095 0 0.33805844474942714 0.36839718773844965 0
          -0.44480172797200057 -0.22836686010260418 0 -0.45081774953246806 0.21624836810131282 0
          0.47894397024585245 -0.14357114391527298 0 0.28080501040406236 0.41370103472432174 0
          -0.4219061514008895 -0.26831921177971907 0 -0.1970664286667797 -0.45952673773407465 0
          0.3679647832652129 0.33852905086060914 0 -0.48195335894455044 -0.13312009541036748 0
          -0.49980483962892513 -0.013968617809376364 0 -0.12310251699882849 0.48460888385228057 0
          0.4931773885959556 -0.08231684747166754 0 0.18333526633022543 0.46517542940231194 0
          0.3353146066341065 0.37089636635833256 0 -0.3828321771470865 -0.3216201550600052 0
          -0.4548294308044469 -0.20767808953787803 0 0.49919386357053824 -0.028381095354458378 0
          -0.07402953527404503 0.49448925964788043 0 0.4904798403105696 -0.09710574776457949 0
          -0.030256363424802434 -0.4990837128902388 0 -0.44031566830341434 -0.23690106003671152 0
          0.3146467786165154 0.38858384514316796 0 -0.36590883490327775 0.34075023776914054 0
          0.1695631655540258 -0.47037042093152287 0 -0.49943118360245226 -0.023843088001632744 0
          -0.4459793306043447 -0.22605848064981018 0 -0.23595860217841835 0.44082143557001274 0
          0.3603564366410794 -0.34661684692372313 0 0.49438271967746916 -0.07473771794956631 0
          0.492129625742202 -0.08836532955203767 0 0.06263285586129216 0.49606161448620334 0
          -0.26399373895361977 0.42462607761804744 0 -0.4804752668055391 0.1383601025879426 0
          -0.40925700218373495 -0.2872432874125736 0 -0.24899019884318618 0.43359414304165894 0
          -0.277883824714894 -0.41566883448464365 0 0.4550475330176673 -0.20719976518938182 0
          -0.49432750124355657 0.0751020739680443 0 -0.15348857075972056 -0.4758584439159804 0
          -0.2905756396390807 -0.40689777297048346 0 0.48432434881432185 -0.12421724979077212 0
          0.3418584987956497 -0.3648736312768912 0 -0.49998045543672326 0.004420880148428566 0
          0.4447320665845018 -0.22850249222159102 0 -0.4340565454914838 -0.2481832293205958 0
          -0.16302001140115524 0.47267798328541516 0 0.4294169999062006 -0.2561270001221233 0
          0.32361704162502053 0.38114565505836445 0 -0.11121300988101313 0.4874747854332629 0
          0.03939235863450643 0.498445826626335 0 -0.24252864903619006 0.4372411856134787 0
          -0.18123702572080047 -0.4659969318653052 0 -0.49288188924045523 0.08406808704115742 0
          -0.4775477063177355 0.14814920921378494 0 0.1918234971980413 -0.46173991155488503 0
          -0.3705464932005119 0.33570120103568735 0 -0.08343721131200352 -0.4929890787517266 0
          0.03419633051619485 0.49882924030095427 0 0.4558196898839606 -0.20549552382981476 0
          -0.3935026591898168 -0.3084731061381898 0 -0.4513711164554437 -0.21509094641515317 0
          -0.4623608230530745 0.19032201476887406 0 0.04868562000975199 0.49762406533875153 0
          -0.49651243362553565 0.05895255087990737 0 -0.24937177517906012 -0.433374800541107 0
          0.4211794227806167 0.26945851967638085 0 0.21388751677667905 0.45194261822393544 0
          0.38522987420740845 -0.318744323899492 0 -0.062120491947552973 -0.4961260368900165 0
          -0.41741655319059034 -0.27525155970945386 0 0.10862052723419913 -0.48805899342534875 0
          0.1644885495922318 0.4721689496917855 0 0.4999994292188129 -0.0007555004045670785 0
          -0.4198315043171998 0.2715538767588433 0 0.49782133984874033 -0.04662524628572999 0
          -0.4150152955584128 -0.2788589328900246 0 0.3937970858112834 -0.30809715222075756 0
          -0.3121666927312761 0.39057900090662456 0 0.3454968260006181 -0.3614304126986253 0
          -0.4147043827875458 -0.27932109640483777 0 0.46644015673324285 0.18009325413981458 0
          -0.10619312082165988 0.4885928991401291 0 -0.4415842888210485 0.23452785733556006 0
          0.49616585078351316 -0.061801687001833 0 0.2545176203989344 -0.4303728394153887 0
          -0.30320691728705873 -0.397574603451074 0 -0.4874192437863044 -0.11145618325955335 0
          0.2638429510170021 0.4247197866813363 0 0.17208818588835773 -0.4694525069457549 0
          0.20048691778710018 -0.4580447530495558 0 0.4993667557534762 -0.025156375896539695 0
          -0.23925338412824948 -0.4390419321467829 0 -0.09843035914923078 -0.4902157325073864 0
          -0.49740278692233886 0.05089663605672165 0 -0.4857709903458678 -0.11843371537866576 0
          -0.4400804304987821 0.2373377649932826 0 0.2286084441777647 -0.44467761271579864 0
          0.4872682009296241 0.11211467505553183 0 -0.1612877829042799 -0.47327185748343614 0
          0.44867279818490824 -0.22066427025897195 0 -0.16870704190958177 0.4706781639402009 0
          0.2296812783993901 -0.4441244311595815 0 -0.33708352324065266 -0.3692894506476842 0
          -0.49092458517333587 0.09483170183218319 0 0.38379960766788423 -0.3204650700996571 0
          -0.22519362170810084 0.44641665822635784 0 -0.39163678859396256 0.31083858483111115 0
          0.40482178810302116 0.2934609341583179 0 0.29502379617671637 0.40368423264908343 0
          0.469120729575764 0.1729905809063109 0 -0.37734844090633013 0.32803681827740294 0
          -0.3630830062821914 0.34375969884366336 0 -0.48402482333352864 0.12537930609532968 0
          0.4220217428107553 0.26813736888947937 0 0.39384607640084174 0.3080345242073725 0
          -0.43252113772295836 -0.25084948758735326 0 0.12032280924325564 0.48530652331883106 0
          0.447663017486544 -0.22270568644478342 0 0.4613740704514519 0.19270175690703678 0
          -0.36791370323565387 0.33858456398871345 0 0.495527514873697 0.06672692112706821 0
          0.36069522405909765 -0.34626428539622356 0 -0.3550107186070019 -0.3520900306372507 0
          -0.016752887239526462 0.49971926195529 0 -0.49997790329679154 0.004700661117777669 0
          -0.38421744974183825 0.31996398440117907 0 0.15390842216709125 0.47572281591914045 0
          0.2078260993470564 -0.454761819450784 0 0.1345794992263713 0.48154787756564676 0
          0.30998457059719314 0.39231309689032023 0 -0.016793205531020025 -0.49971790867247584 0
          <InformationKey name="L2_NORM_RANGE" location="vtkDataArray" length="2">
            <Value index="0">
              0.5
            </Value>
            <Value index="1">
              0.5
            </Value>
          </InformationKey>
        </DataArray>
        <DataArray type="Float64" Name="radius" format="ascii" RangeMin="1" RangeMax="1">
          1 1 1 1 1 1
          1 1 1 1 1 1
          1 1 1 1 1 1
          1 1 1 1 1 1
          1 1 1 1 1 1
          1 1 1 1 1 1
          1 1 1 1 1 1
          1 1 1 1 1 1
          1 1 1 1 1 1
          1 1 1 1 1 1
          1 1 1 1 1 1
          1 1 1 1 1 1
          1 1 1 1 1 1
          1 1 1 1 1 1
          1 1 1 1 1 1
          1 1 1 1 1 1
          1 1 1 1 1 1
          1 1 1 1 1 1
          1 1 1 1 1 1
          1 1 1 1 1 1
          1 1 1 1 1 1
          1 1 1 1 1 1
          1 1 1 1 1 1
          1 1 1 1 1 1
          1 1 1 1 1 1
          1 1 1 1
        </DataArray>
      </PointData>
      <CellData>
      </CellData>
      <Points>
        <DataArray type="Float32" Name="Points" NumberOfComponents="3" format="ascii" RangeMin="3.009355695997788" RangeMax="67.54269253121855">
          -37.627559661865234 33.769004821777344 0 46.741783142089844 -28.28785514831543 0
          -19.631519317626953 4.595077037811279 0 -31.309436798095703 49.76972961425781 0
          48.9161376953125 46.57495880126953 0 22.471643447875977 48.68537902832031 0
          -40.06574630737305 29.699996948242188 0 -19.54761505126953 -50.146141052246094 0
          -39.00590896606445 13.298545837402344 0 37.72955322265625 0.8182199001312256 0
          29.668325424194336 -13.406112670898438 0 -29.165611267089844 18.090360641479492 0
          -10.416763305664062 24.05156135559082 0 -3.1735339164733887 -7.641538619995117 0
          -32.50202178955078 -19.58391571044922 0 28.87187957763672 -18.423227310180664 0
          37.124019622802734 -35.02642059326172 0 48.8240966796875 31.175424575805664 0
          -37.68728256225586 26.346920013427734 0 -1.2262154817581177 15.57241439819336 0
          -38.25343704223633 -28.100200653076172 0 -45.035221099853516 -46.056678771972656 0
          -8.862226486206055 -4.166753768920898 0 -1.5627297163009644 29.523162841796875 0
          41.57439422607422 30.57802963256836 0 21.020519256591797 -49.77191925048828 0
          20.780105590820312 14.506552696228027 0 -4.419042110443115 26.897075653076172 0
          7.68200159072876 37.65785598754883 0 30.510766983032227 -47.771705627441406 0
          33.34308624267578 33.02003860473633 0 43.699623107910156 -8.577346801757812 0
          -7.661234378814697 7.506639003753662 0 -34.193450927734375 26.549402236938477 0
          -26.085935592651367 31.52381706237793 0 49.636837005615234 -18.03817367553711 0
          -20.246477127075195 -49.1078987121582 0 -29.205549240112305 40.86802291870117 0
          34.40656280517578 45.760162353515625 0 27.783037185668945 49.29705810546875 0
          -43.33501434326172 29.338260650634766 0 9.648139953613281 23.531673431396484 0
          19.51529884338379 18.35399055480957 0 -10.563079833984375 6.090208530426025 0
          -29.5844783782959 2.064168930053711 0 -9.51162052154541 -14.563275337219238 0
          9.13924789428711 -13.796512603759766 0 46.53310012817383 -34.922603607177734 0
          -10.911397933959961 -11.705336570739746 0 22.2559757232666 -11.811256408691406 0
          42.58528137207031 -6.216211795806885 0 35.21553039550781 11.9678316116333 0
          -37.3334846496582 -2.3871958255767822 0 -15.271207809448242 3.510847568511963 0
          21.951562881469727 48.58126449584961 0 21.78954315185547 41.904598236083984 0
          0.8620386719703674 6.094984531402588 0 0.5139834880828857 -3.5328102111816406 0
          4.74312162399292 -5.789188861846924 0 34.88225173950195 10.92040729522705 0
          0.8485552668571472 47.80440139770508 0 -46.99313735961914 47.6288948059082 0
          -13.988243103027344 17.296558380126953 0 -15.248239517211914 35.55506896972656 0
          -45.215118408203125 15.171379089355469 0 24.31706428527832 -36.08952713012695 0
          48.13388442993164 -40.25064468383789 0 -21.91385841369629 30.56389808654785 0
          -42.296207427978516 13.298736572265625 0 -48.685699462890625 18.58332061767578 0
          3.25469970703125 -5.856747627258301 0 -30.109172821044922 -35.22048568725586 0
          -11.089719772338867 26.629980087280273 0 -46.487884521484375 -24.43927574157715 0
          1.2738537788391113 33.00172805786133 0 47.45873260498047 32.25307083129883 0
          -19.646751403808594 -43.7813606262207 0 -24.433521270751953 3.6674516201019287 0
          39.538414001464844 -14.974937438964844 0 -47.13937759399414 -33.65983581542969 0
          37.7778205871582 -29.82904052734375 0 -23.24141502380371 -0.40768730640411377 0
          -27.727460861206055 -0.7544503211975098 0 44.25908660888672 15.654864311218262 0
          26.562000274658203 -6.4540486335754395 0 5.098119258880615 -44.406131744384766 0
          -16.914833068847656 -8.59156608581543 0 40.71470642089844 31.114097595214844 0
          -24.558420181274414 -36.438228607177734 0 -1.4253368377685547 -11.702131271362305 0
          21.8104305267334 -21.246862411499023 0 11.809412002563477 31.553068161010742 0
          -18.466840744018555 -11.695769309997559 0 -14.932809829711914 31.41558265686035 0
          17.96939468383789 -12.38482666015625 0 -4.700736045837402 -19.132917404174805 0
          40.82312774658203 -1.3951598405838013 0 25.607023239135742 -38.4342155456543 0
          -9.924254417419434 37.235130310058594 0 -13.15674114227295 42.25581359863281 0
          4.963077068328857 -36.17048645019531 0 -29.443761825561523 45.02821350097656 0
          49.99652099609375 -26.903425216674805 0 -47.99706268310547 -11.580526351928711 0
          28.524555206298828 -2.933781623840332 0 4.2356791496276855 -48.42742156982422 0
          39.80525588989258 -30.049461364746094 0 38.710853576660156 -5.49613618850708 0
          -34.94587707519531 -25.733278274536133 0 29.104816436767578 -2.588733434677124 0
          -41.075199127197266 14.977191925048828 0 13.965807914733887 8.328265190124512 0
          21.609058380126953 -14.8953218460083 0 18.369844436645508 20.30907440185547 0
          -33.95447540283203 -36.50225067138672 0 -5.366270065307617 -46.21361541748047 0
          30.232629776000977 -33.02622985839844 0 32.74199676513672 -16.66424560546875 0
          16.014074325561523 -8.216595649719238 0 27.645275115966797 -38.304988861083984 0