<?xml version="1.0"?>
<VTKFile type="PolyData" version="0.1" byte_order="LittleEndian" header_type="UInt32" compressor="vtkZLibDataCompressor">
  <PolyData>
    <Piece NumberOfPoints="154" NumberOfVerts="0" NumberOfLines="0" NumberOfStrips="0" NumberOfPolys="0">
      <PointData>
        <DataArray type="Int32" Name="id" format="ascii" RangeMin="0" RangeMax="153">
          0 1 2 3 4 5
          6 7 8 9 10 11
          12 13 14 15 16 17
          18 19 20 21 22 23
          24 25 26 27 28 29
          30 31 32 33 34 35
          36 37 38 39 40 41
          42 43 44 45 46 47
          48 49 50 51 52 53
          54 55 56 57 58 59
          60 61 62 63 64 65
          66 67 68 69 70 71
          72 73 74 75 76 77
          78 79 80 81 82 83
          84 85 86 87 88 89
          90 91 92 93 94 95
          96 97 98 99 100 101
          102 103 104 105 106 107
          108 109 110 111 112 113
          114 115 116 117 118 119
          120 121 122 123 124 125
          126 127 128 129 130 131
          132 133 134 135 136 137
          138 139 140 141 142 143
          144 145 146 147 148 149
          150 151 152 153
        </DataArray>
        <DataArray type="Float64" Name="director" NumberOfComponents="3" format="ascii" RangeMin="0.9999999999999999" RangeMax="1">
          -0.9998491921796232 -0.01736643019606578 0 0.27274247231841126 -0.9620870770328643 0
          -0.7471544752755063 -0.6646504269732947 0 0.3462789582654938 0.9381315915491624 0
          -0.9994090203554841 -0.03437455500936185 0 -0.30088411448317254 0.9536607099234388 0
          0.8872363040095791 0.4613152293686192 0 0.9235043216175084 0.38358801852219737 0
          0.9740914027352944 -0.22615467962699018 0 -0.38565272272160855 -0.9226440144808886 0
          -0.6353068819198747 0.7722597786918897 0 -0.9992774391562175 -0.038007888567928215 0
          -0.49475198233203393 -0.869034220257478 0 -0.28525867571847857 0.9584505662408155 0
          0.725785960734881 0.6879205907662205 0 0.8845213608510231 -0.466499691530717 0
          -0.9206737175912503 -0.3903330702575773 0 -0.9205250089361455 0.3906836417398472 0
          0.9999892946876637 0.00462714923779437 0 -0.9671321168333653 -0.25427439625218645 0
          0.6275574005677986 0.7785702980416012 0 0.39359783469241466 -0.9192827337252901 0
          -0.8891980764127816 -0.45752243759602546 0 0.7555698802913163 0.6550680544772168 0
          -0.9114413913538869 -0.4114299334356832 0 -0.8925552091525497 0.4509381316928612 0
          0.9572592696977008 -0.28923120609267683 0 0.510483195148379 0.8598877295735193 0
          -0.8706740299331387 -0.49186048184417885 0 -0.5616693902488223 -0.8273617685495965 0
          0.7512407982227809 0.6600282290066077 0 -0.9505749496027879 -0.31049519350169863 0
          -0.9978940578309067 0.06486485447271893 0 -0.23006042979108376 0.9731763450908277 0
          0.9973754874488288 -0.07240260379441675 0 0.27019749931423204 0.9628049186436137 0
          0.6368943711968954 0.7709510749312898 0 -0.777132901448562 -0.6293365184749251 0
          -0.9670657086243446 -0.2545268457410616 0 0.9878045682289519 0.15569885993806756 0
          -0.1410278248263813 0.9900056326227339 0 0.9092294046752708 -0.4162954355669212 0
          -0.11972627177175739 -0.9928069398667776 0 -0.9292111693997498 -0.36954918842117557 0
          0.6561811344663762 0.7546034182074844 0 -0.7694979221174619 0.6386493152403036 0
          0.38871820219136316 -0.9213566949260826 0 -0.9999802828650789 -0.006279640202813428 0
          -0.9040124127093205 -0.4275062077531425 0 -0.43342274939187453 0.9011907236038265 0
          0.7884805782713096 -0.6150596537645282 0 0.986991256026799 -0.16077394231230918 0
          0.9816496899107496 -0.19069317318176118 0 0.2948454485360338 0.9555449552363222 0
          -0.46987731663790844 0.8827317300908349 0 -0.9562059001779258 0.2926948521325964 0
          -0.8471695200670334 -0.5313226931624437 0 -0.5243044055382314 0.8515309097931805 0
          -0.4935421564797825 -0.8697218749561758 0 0.9066624459591863 -0.42185685852822824 0
          -0.9928807377480472 0.11911272227975288 0 -0.3715738682870833 -0.9284033931466286 0
          -0.5747607739387031 -0.8183214849564827 0 0.9949975469140907 -0.09989935753017537 0
          0.6087929001569999 -0.7933291906380535 0 -0.9996641435930554 -0.025915246754815865 0
          0.9012591036241301 -0.43328054206787253 0 -0.9152945069355244 -0.40278525987634556 0
          -0.26252348776462103 0.9649256025061719 0 0.9629361353925421 -0.269729492557406 0
          0.6300299927419231 0.7765708005363146 0 -0.2787050104303843 0.960376757924201 0
          0.06417805363039499 0.9979384637502525 0 -0.3700860858563097 0.9289974645043743 0
          -0.17375731396573674 -0.9847885031027791 0 -0.9850347970003116 0.17235558795279865 0
          -0.972586583094517 0.23254104666602884 0 0.5025190508326842 -0.8645661360186496 0
          -0.7193488421313559 0.6946490072866136 0 -0.10843086713139388 -0.9941039920718224 0
          -0.010081778880516748 0.9999491775758428 0 0.9560932696356581 -0.29306255263577546 0
          -0.6705888695759012 -0.7418292040631151 0 -0.8507621078024079 -0.5255509831858409 0
          -0.935829222744417 0.35245377832785424 0 0.1889069899574513 0.9819949842770153 0
          -0.9926530327071521 0.12099568858969172 0 -0.541218957168713 -0.8408817041660561 0
          0.8311560358013933 0.5560392469519692 0 0.45891192903883465 0.8884817619883121 0
          0.733525755409466 -0.6796616556426972 0 -0.037689676596973726 -0.9992894917280055 0
          -0.8537065466453205 -0.5207543876098608 0 0.13930969013423153 -0.9902488627787989 0
          0.2728861988084105 0.9620463203504791 0 0.985933420094955 -0.16713853876310214 0
          -0.7907920876116922 0.6120848586354198 0 0.9992275601448759 0.03929736692093356 0
          -0.8072660369404399 -0.5901877206469789 0 0.8443749658550848 -0.5357526640505155 0
          -0.5163754800811439 0.8563622852338654 0 0.7474747061763856 -0.6642902706095628 0
          -0.833207580865578 -0.55296033057366 0 0.9550413256839541 0.296472707404637 0
          -0.193659461569806 0.9810688115236835 0 -0.9128259125712767 0.4083489357625607 0
          0.9983556125564503 -0.057324260806702575 0 0.5401099722819553 -0.8415944497449978 0
          -0.504915205337931 -0.8631689495217926 0 -0.9670246479801001 -0.2546828031080299 0
          0.5879647540621747 0.8088865482752241 0 0.3697130746501202 -0.9291459747707863 0
          0.20493632680437127 -0.9787753071854295 0 0.9913713898353115 -0.13108305541145593 0
          -0.47051628699434184 -0.8823913098354144 0 -0.24929375724643524 -0.9684279129589127 0
          -0.9975868472192259 0.06942969289291825 0 -0.9468348995251192 -0.32171986733998476 0
          -0.8914522923290589 0.45311456663990207 0 0.5269463710382153 -0.8498985363263403 0
          0.9859323918420113 0.16714460421051763 0 -0.4468387188174615 -0.8946145311616448 0
          0.9023122268724633 -0.43108310711097964 0 -0.25267837180881464 0.9675503296573499 0
          0.2906387949964718 -0.9568328437313378 0 -0.631261269930817 -0.7755702476793009 0
          -0.9673662927328105 0.25338203504664325 0 0.6916265107448556 -0.7222553354838551 0
          -0.5235446970169142 0.8519982102243334 0 -0.8019529456896684 0.5973872051690292 0
          0.8410435599126298 0.5409674022799255 0 0.5726453280967851 0.8198032252979525 0
          0.9751912308381526 0.2213640966741648 0 -0.7597023782426371 0.6502709408334969 0
          -0.7743090681376711 0.6328076066228752 0 -0.951803282583163 0.30670916397120507 0
          0.785279292678728 0.6191416901566205 0 0.8119460457904768 0.5837324890094854 0
          -0.7869827646453638 -0.6169749817870576 0 0.08412259128819573 0.9964554127681575 0
          0.8105214538925896 -0.5857089488644021 0 0.9051265033457254 0.42514234432850906 0
          -0.7831286638998383 0.6218597074730394 0 0.970153549140935 0.24249142477466604 0
          0.5340104364530809 -0.845477884843353 0 -0.7219608179097353 -0.6919339400572182 0
          -0.01721861516791444 0.9998517486566192 0 -0.9955131296763634 -0.09462350998547865 0
          -0.7462207327129502 0.6656985940118454 0 0.3010910127549929 0.9535954079368109 0
          0.5417135704115433 -0.8405631491042049 0 0.29499016171422177 0.9555002901578927 0
          0.6393646080787392 0.768903698740174 0 -0.019535939738283714 -0.9998091553184248 0
          <InformationKey name="L2_NORM_RANGE" location="vtkDataArray" length="2">
            <Value index="0">
              1
            </Value>
            <Value index="1">
              1
            </Value>
          </InformationKey>
        </DataArray>
        <DataArray type="Float64" Name="velocity" NumberOfComponents="3" format="ascii" RangeMin="2.98391528750295" RangeMax="65.61664053985334">
          20.472372037415383 -30.489259884928693 0 -7.778161120144524 43.605506408926914 0
          -35.778279556590725 14.318100471258902 0 -2.7267860528004704 -6.306708942777526 0
          -25.56803597993237 0.5919415230237348 0 40.69440930810454 -42.34960265147567 0
          21.390392053252754 11.720491675449018 0 -31.091580543867785 -10.301819378431787 0
          -22.233594277397 35.80993014386058 0 40.8936574712134 11.727908496204755 0
          -31.918129728714472 1.502371966558826 0 32.46317064138093 -14.067556233339687 0
          31.61170207931397 -20.66117562390716 0 -32.788218903188394 -0.7210412736466054 0
          -30.467523066969363 36.43074923190564 0 -29.58028331655805 11.627227611362315 0
          37.80505508071815 -10.753091333426255 0 44.65772551607054 -33.330173144632525 0
          47.18774005931614 6.396489460552942 0 9.836891189866492 -36.87781496106794 0
          6.677739541459459 5.438027088135769 0 -18.951003944933063 -37.93510690561732 0
          23.77908201111339 -25.727634747998636 0 32.285914726045576 -31.45240287607238 0
          -18.732306147503376 38.172541468590836 0 17.42129460906331 23.929755673071398 0
          -43.74567596165927 -36.843843838172035 0 -41.00470913383489 -49.1685554695042 0
          -4.3489588147394045 13.430332075080756 0 2.9762992276979077 -0.21305715242312573 0
          -16.420210149222868 -24.717665071237764 0 -26.63245586108499 -32.68369682188443 0
          9.59810303037343 22.68931438280859 0 37.757309281314306 20.71597266757422 0
          -26.523439665569285 -2.200425364398683 0 -48.17882370239545 24.733119867345934 0
          15.472358145094617 -42.19330576503555 0 -2.7230899171649696 49.647506705142575 0
          3.209752212846098 39.943600631846664 0 27.290092728339346 -29.624030405099575 0
          40.710862227344634 -12.518743865476708 0 34.808888796398136 -17.330075407408792 0
          -17.326333983387784 15.921061981020685 0 8.676498234140595 -45.101679767889145 0
          26.99656655139428 -0.8247828969564566 0 -1.181598492863479 -7.087342925864128 0
          -10.527228461045638 27.645380145270124 0 47.47543864880045 24.850515939083976 0
          13.45020038299144 -42.781974126121774 0 13.33632968921519 2.89206325620421 0
          -20.383234879262602 -17.467213088655853 0 13.111992425538233 49.45054225750374 0
          1.6047826830209004 22.445391370448775 0 -25.442525168919026 -16.766088433362327 0
          24.860911549332883 18.296648546241826 0 18.127137052491975 -42.11576276898946 0
          -4.106371249565804 19.81468592825003 0 -43.2115168522386 -43.085994704941484 0
          2.7042817825837204 -23.795120132132308 0 -1.6624837545658195 -36.91945356486498 0
          -40.55592314206473 -37.96183180819797 0 46.98372058379586 25.62816454897687 0
          -23.182362140209666 22.4905983535036 0 -8.42374893276238 -2.5281598168396826 0
          -44.45585735866184 11.374414308737222 0 -0.9380815156004232 40.44748670579848 0
          43.5214270198436 41.82766196839604 0 -19.617472876146607 29.010177679462174 0
          -27.377259211045168 -5.104813753149479 0 1.0108912986547693 -26.93680745999526 0
          21.18807799653547 48.4452609761332 0 15.521324819791857 -22.733301715898534 0
          -3.0984436752635744 -49.699879474370995 0 -5.357606698271908 47.09441502974741 0
          -19.533649987483585 -28.48909553641595 0 -25.241492794096537 30.645102659141713 0
          -1.3628901407151872 -9.249808436218693 0 -28.437070584076316 4.0252086974848424 0
          22.302423751473526 -21.630608392707323 0 4.286209731170565 25.592468486596516 0
          -16.80227135673981 30.176297340482108 0 35.70724318896097 -48.51082997011254 0
          38.494266527440914 9.308694076898924 0 -41.37827709570729 42.48759424258512 0
          41.371957205314274 48.07567751376408 0 40.00221093710812 44.971458396046486 0
          43.45219546574209 -49.16757290067578 0 27.77940311086799 -47.40411222574361 0
          8.787704962513757 14.978077069606684 0 -17.176354508003442 -38.89206379839693 0
          -37.572734230027905 47.39150589914381 0 3.322947059262674 16.230028184641725 0
          20.82576325094061 -43.12614201683975 0 -29.404442159877867 -6.6570323329381935 0
          -48.88074135310182 -43.07374742736768 0 -15.693819004659524 -18.776991949103287 0
          49.2742614956165 -23.093566379026992 0 35.70662412955289 -14.438908494432013 0
          24.676827977366614 34.48562696853686 0 -28.28613766609157 46.49521791482232 0
          21.219265309149932 48.266786794162286 0 25.989900495501132 -30.673962513745963 0
          -14.741048879365302 -30.369965831724773 0 33.206792723445574 45.25947670903301 0
          26.73700517552618 36.1968809297727 0 -4.433626259916984 -16.731616061562868 0
          33.82599634129042 5.430878965379037 0 -37.91344272052366 -28.781627030961573 0
          -0.8760744559602713 -9.034520229977083 0 25.951148963832622 -14.29357740625877 0
          27.17860558051683 48.15404052238152 0 34.61617221348607 33.462162550860555 0
          -13.28055184508198 -44.93740558320786 0 47.55616001461492 34.25892934866374 0
          36.946038841117556 -42.45015674570037 0 -46.76239316488481 11.393180618063838 0
          23.568028568935404 11.552780427737098 0 16.263007945057282 45.12644264060411 0
          -23.411248530157515 41.93857265065735 0 -38.160345232049345 -18.69342940760771 0
          37.21153998486223 -26.635630373860984 0 30.80584946405935 5.653176675427417 0
          44.35923105765637 0.370346282237378 0 16.64168251311186 -34.7034267378138 0
          47.322877480901255 13.376690736606477 0 -32.1350217035443 -42.58571958176201 0
          -0.5025219679409361 28.59799073613067 0 -3.5320261053794297 38.30316610148137 0
          14.736889949280638 40.32409694969634 0 -49.402638529229115 19.356180838194604 0
          8.508964450503598 -39.46387075781778 0 49.03198966734128 -27.000797471280585 0
          -16.70921662991016 18.938285128010065 0 46.14207459237997 -27.3400906744995 0
          42.424140585792586 37.62461911345025 0 -6.825547086494495 -2.911259141055119 0
          6.210247997996007 33.76154121673389 0 -35.16911208657487 13.927818279591207 0
          49.5593687100304 13.93941034113417 0 -6.0481675260535965 -47.161165000275155 0
          -41.68490984500472 3.0367185203014984 0 28.200151364646487 23.664522522360798 0
          -30.983903256438072 -23.817273645282434 0 -4.775523168997552 -3.9973115200368454 0
          17.36371431475763 -32.304692769073746 0 -31.21691646176371 -40.35131875297581 0
          -17.61253928181918 -32.96735050248542 0 -47.52659271635095 33.064298464373394 0
          -25.51716157275273 -35.79649925661745 0 -34.4558032257712 -19.698927528483058 0
          -46.64276824331557 -9.071061809886274 0 28.312364537561464 -5.662808823633235 0
          -48.25117889494449 -21.421563451189467 0 45.139670111270334 -32.86849758057289 0
          <InformationKey name="L2_NORM_RANGE" location="vtkDataArray" length="2">
            <Value index="0">
              2.9839152875
            </Value>
            <Value index="1">
              65.61664054
            </Value>
          </InformationKey>
        </DataArray>
        <DataArray type="Float64" Name="force" NumberOfComponents="3" format="ascii" RangeMin="0.49999999999999994" RangeMax="0.5">
          -0.4999245960898116 -0.00868321509803289 0 0.13637123615920563 -0.48104353851643217 0
          -0.37357723763775313 -0.33232521348664734 0 0.1731394791327469 0.4690657957745812 0
          -0.49970451017774203 -0.017187277504680926 0 -0.15044205724158627 0.4768303549617194 0
          0.44361815200478955 0.2306576146843096 0 0.4617521608087542 0.19179400926109869 0
          0.4870457013676472 -0.11307733981349509 0 -0.19282636136080428 -0.4613220072404443 0
          -0.31765344095993736 0.38612988934594483 0 -0.49963871957810874 -0.019003944283964107 0
          -0.24737599116601697 -0.434517110128739 0 -0.14262933785923929 0.47922528312040774 0
          0.3628929803674405 0.34396029538311024 0 0.44226068042551153 -0.2332498457653585 0
          -0.46033685879562514 -0.19516653512878865 0 -0.46026250446807276 0.1953418208699236 0
          0.49999464734383187 0.002313574618897185 0 -0.48356605841668265 -0.12713719812609323 0
          0.3137787002838993 0.3892851490208006 0 0.19679891734620733 -0.45964136686264506 0
          -0.4445990382063908 -0.22876121879801273 0 0.37778494014565817 0.3275340272386084 0
          -0.45572069567694345 -0.2057149667178416 0 -0.44627760457627486 0.2254690658464306 0
          0.4786296348488504 -0.14461560304633841 0 0.2552415975741895 0.42994386478675967 0
          -0.43533701496656935 -0.24593024092208943 0 -0.28083469512441117 -0.41368088427479827 0
          0.37562039911139045 0.33001411450330387 0 -0.47528747480139394 -0.15524759675084931 0
          -0.49894702891545334 0.032432427236359467 0 -0.11503021489554188 0.48658817254541387 0
          0.4986877437244144 -0.036201301897208375 0 0.13509874965711602 0.48140245932180686 0
          0.3184471855984477 0.3854755374656449 0 -0.388566450724281 -0.31466825923746256 0
          -0.4835328543121723 -0.1272634228705308 0 0.49390228411447595 0.07784942996903378 0
          -0.07051391241319065 0.49500281631136694 0 0.4546147023376354 -0.2081477177834606 0
          -0.059863135885878695 -0.4964034699333888 0 -0.4646055846998749 -0.18477459421058778 0
          0.3280905672331881 0.3773017091037422 0 -0.38474896105873096 0.3193246576201518 0
          0.19435910109568158 -0.4606783474630413 0 -0.49999014143253945 -0.003139820101406714 0
          -0.45200620635466027 -0.21375310387657126 0 -0.21671137469593726 0.45059536180191323 0
          0.3942402891356548 -0.3075298268822641 0 0.4934956280133995 -0.08038697115615459 0
          0.4908248449553748 -0.09534658659088059 0 0.1474227242680169 0.4777724776181611 0
          -0.23493865831895422 0.44136586504541747 0 -0.4781029500889629 0.1463474260662982 0
          -0.4235847600335167 -0.26566134658122187 0 -0.2621522027691157 0.42576545489659023 0
          -0.24677107823989125 -0.4348609374780879 0 0.45333122297959316 -0.21092842926411412 0
          -0.4964403688740236 0.05955636113987644 0 -0.18578693414354164 -0.4642016965733143 0
          -0.28738038696935153 -0.40916074247824136 0 0.49749877345704535 -0.049949678765087685 0
          0.30439645007849997 -0.39666459531902676 0 -0.4998320717965277 -0.012957623377407933 0
          0.45062955181206504 -0.21664027103393627 0 -0.4576472534677622 -0.20139262993817278 0
          -0.13126174388231052 0.48246280125308594 0 0.48146806769627104 -0.134864746278703 0
          0.31501499637096153 0.3882854002681573 0 -0.13935250521519216 0.4801883789621005 0
          0.03208902681519749 0.49896923187512626 0 -0.18504304292815485 0.46449873225218713 0
          -0.08687865698286837 -0.49239425155138955 0 -0.4925173985001558 0.08617779397639933 0
          -0.4862932915472585 0.11627052333301442 0 0.2512595254163421 -0.4322830680093248 0
          -0.35967442106567793 0.3473245036433068 0 -0.05421543356569694 -0.4970519960359112 0
          -0.005040889440258374 0.4999745887879214 0 0.47804663481782905 -0.14653127631788773 0
          -0.3352944347879506 -0.37091460203155757 0 -0.42538105390120395 -0.26277549159292046 0
          -0.4679146113722085 0.17622688916392712 0 0.09445349497872566 0.49099749213850763 0
          -0.49632651635357605 0.06049784429484586 0 -0.2706094785843565 -0.42044085208302806 0
          0.41557801790069665 0.2780196234759846 0 0.22945596451941733 0.44424088099415604 0
          0.366762877704733 -0.3398308278213486 0 -0.018844838298486863 -0.49964474586400276 0
          -0.42685327332266026 -0.2603771938049304 0 0.06965484506711576 -0.49512443138939943 0
          0.13644309940420524 0.48102316017523955 0 0.4929667100474775 -0.08356926938155107 0
          -0.3953960438058461 0.3060424293177099 0 0.49961378007243795 0.01964868346046678 0
          -0.40363301847021993 -0.29509386032348944 0 0.4221874829275424 -0.26787633202525774 0
          -0.25818774004057193 0.4281811426169327 0 0.3737373530881928 -0.3321451353047814 0
          -0.416603790432789 -0.27648016528683 0 0.47752066284197703 0.1482363537023185 0
          -0.096829730784903 0.49053440576184176 0 -0.4564129562856383 0.20417446788128035 0
          0.49917780627822517 -0.028662130403351287 0 0.27005498614097767 -0.4207972248724989 0
          -0.2524576026689655 -0.4315844747608963 0 -0.48351232399005006 -0.12734140155401494 0
          0.29398237703108737 0.40444327413761205 0 0.1848565373250601 -0.46457298738539315 0
          0.10246816340218563 -0.48938765359271474 0 0.49568569491765574 -0.06554152770572796 0
          -0.23525814349717092 -0.4411956549177072 0 -0.12464687862321762 -0.48421395647945636 0
          -0.49879342360961293 0.03471484644645913 0 -0.4734174497625596 -0.16085993366999238 0
          -0.44572614616452944 0.22655728331995104 0 0.26347318551910764 -0.42494926816317014 0
          0.49296619592100566 0.08357230210525882 0 -0.22341935940873076 -0.4473072655808224 0
          0.45115611343623163 -0.21554155355548982 0 -0.12633918590440732 0.48377516482867494 0
          0.1453193974982359 -0.4784164218656689 0 -0.3156306349654085 -0.38778512383965047 0
          -0.48368314636640525 0.12669101752332163 0 0.3458132553724278 -0.36112766774192756 0
          -0.2617723485084571 0.4259991051121667 0 -0.4009764728448342 0.2986936025845146 0
          0.4205217799563149 0.27048370113996273 0 0.28632266404839257 0.40990161264897623 0
          0.4875956154190763 0.1106820483370824 0 -0.37985118912131854 0.32513547041674845 0
          -0.38715453406883554 0.3164038033114376 0 -0.4759016412915815 0.15335458198560253 0
          0.392639646339364 0.30957084507831023 0 0.4059730228952384 0.2918662445047427 0
          -0.3934913823226819 -0.3084874908935288 0 0.042061295644097864 0.49822770638407876 0
          0.4052607269462948 -0.29285447443220103 0 0.4525632516728627 0.21257117216425453 0
          -0.39156433194991913 0.3109298537365197 0 0.4850767745704675 0.12124571238733302 0
          0.26700521822654044 -0.4227389424216765 0 -0.36098040895486766 -0.3459669700286091 0
          -0.00860930758395722 0.4999258743283096 0 -0.4977565648381817 -0.047311754992739326 0
          -0.3731103663564751 0.3328492970059227 0 0.15054550637749645 0.47679770396840543 0
          0.27085678520577167 -0.42028157455210247 0 0.14749508085711088 0.47775014507894636 0
          0.3196823040393696 0.384451849370087 0 -0.009767969869141857 -0.4999045776592124 0
          <InformationKey name="L2_NORM_RANGE" location="vtkDataArray" length="2">
            <Value index="0">
              0.5
            </Value>
            <Value index="1">
              0.5
            </Value>
          </InformationKey>
        </DataArray>
        <DataArray type="Float64" Name="radius" format="ascii" RangeMin="1" RangeMax="1">
          1 1 1 1 1 1
          1 1 1 1 1 1
          1 1 1 1 1 1
          1 1 1 1 1 1
          1 1 1 1 1 1
          1 1 1 1 1 1
          1 1 1 1 1 1
          1 1 1 1 1 1
          1 1 1 1 1 1
          1 1 1 1 1 1
          1 1 1 1 1 1
          1 1 1 1 1 1
          1 1 1 1 1 1
          1 1 1 1 1 1
          1 1 1 1 1 1
          1 1 1 1 1 1
          1 1 1 1 1 1
          1 1 1 1 1 1
          1 1 1 1 1 1
          1 1 1 1 1 1
          1 1 1 1 1 1
          1 1 1 1 1 1
          1 1 1 1 1 1
          1 1 1 1 1 1
          1 1 1 1 1 1
          1 1 1 1
        </DataArray>
      </PointData>
      <CellData>
      </CellData>
      <Points>
        <DataArray type="Float32" Name="Points" NumberOfComponents="3" format="ascii" RangeMin="3.125101930459301" RangeMax="67.46830994035629">
          -37.7273063659668 33.75239562988281 0 46.79389190673828 -28.173784255981445 0
          -19.66655731201172 4.578036785125732 0 -31.237913131713867 49.746524810791016 0
          48.87970733642578 46.50534439086914 0 22.43572235107422 48.577266693115234 0
          -40.05150604248047 29.507848739624023 0 -19.634052276611328 -50.20310592651367 0
          -39.021820068359375 13.255026817321777 0 37.75712585449219 0.8153902888298035 0
          29.766904830932617 -13.289353370666504 0 -29.22252082824707 18.06497573852539 0
          -10.421924591064453 24.01665687561035 0 -3.372175931930542 -7.5972700119018555 0
          -32.46036911010742 -19.5235538482666 0 28.940397262573242 -18.38653564453125 0
          37.09088134765625 -35.033145904541016 0 48.84042739868164 31.25763511657715 0
          -37.686683654785156 26.218164443969727 0 -1.311224102973938 15.531298637390137 0
          -38.29761505126953 -28.124645233154297 0 -45.01084518432617 -46.14374923706055 0
          -8.70619010925293 -4.101198196411133 0 -1.5960235595703125 29.56682586669922 0
          41.761871337890625 30.511497497558594 0 21.05331802368164 -49.79518127441406 0
          20.74095916748047 14.488368034362793 0 -4.286386489868164 26.990821838378906 0
          7.664247989654541 37.5662956237793 0 30.52023696899414 -47.78446578979492 0
          33.36354446411133 32.99126434326172 0 43.71257019042969 -8.479687690734863 0
          -7.773565292358398 7.493395805358887 0 -34.187110900878906 26.76860237121582 0
          -26.01062774658203 31.588600158691406 0 49.50919723510742 -17.86862564086914 0
          -20.251136779785156 -49.03040313720703 0 -29.142963409423828 40.796173095703125 0
          34.34601974487305 45.69453048706055 0 27.809326171875 49.27394104003906 0
          -43.372135162353516 29.39153289794922 0 9.59914779663086 23.829421997070312 0
          19.517335891723633 18.273469924926758 0 -10.589686393737793 5.866225242614746 0
          -29.8572998046875 2.1869711875915527 0 -9.43486499786377 -14.671319007873535 0
          9.123178482055664 -13.786036491394043 0 46.54627990722656 -34.893096923828125 0
          -10.72667407989502 -11.795206069946289 0 22.275907516479492 -11.680463790893555 0
          42.64938735961914 -6.382935523986816 0 35.183349609375 12.017960548400879 0
          -37.2391242980957 -2.633535385131836 0 -15.422235488891602 3.6811771392822266 0
          21.912181854248047 48.62409210205078 0 21.80348014831543 41.92955017089844 0
          0.8408011198043823 6.147615432739258 0 0.592770516872406 -3.594524621963501 0
          4.819519996643066 -5.630948543548584 0 34.90496063232422 11.107067108154297 0
          0.6518986225128174 47.73225402832031 0 -47.04664611816406 47.640174865722656 0
          -13.976408004760742 17.337322235107422 0 -15.287677764892578 35.59983444213867 0
          -45.25166702270508 15.258052825927734 0 24.32582664489746 -36.10392379760742 0
          48.09648895263672 -40.34405517578125 0 -21.862308502197266 30.440013885498047 0
          -42.314388275146484 13.270040512084961 0 -48.667686462402344 18.626407623291016 0
          3.1322407722473145 -5.973784446716309 0 -30.03831672668457 -35.32503128051758 0
          -10.954920768737793 26.569297790527344 0 -46.26592254638672 -24.52499008178711 0
          1.188615083694458 33.09770584106445 0 47.40758514404297 32.384727478027344 0
          -19.57869529724121 -43.77220153808594 0 -24.512495040893555 3.666863203048706 0
          39.57378005981445 -15.017879486083984 0 -47.29283142089844 -33.42839431762695 0
          37.689735412597656 -29.866756439208984 0 -23.303070068359375 -0.6271330714225769 0
          -27.607711791992188 -0.5928866863250732 0 44.283599853515625 15.647403717041016 0
          26.505128860473633 -6.416687965393066 0 5.048419952392578 -44.39732360839844 0
          -16.895767211914062 -8.659796714782715 0 40.806610107421875 31.146835327148438 0
          -24.651769638061523 -36.332862854003906 0 -1.496338963508606 -11.7340087890625 0
          21.791080474853516 -21.48093605041504 0 11.925556182861328 31.623170852661133 0
          -18.498600006103516 -11.600203514099121 0 -14.950342178344727 31.45271110534668 0
          17.811887741088867 -12.467684745788574 0 -4.664860248565674 -19.295806884765625 0
          40.60342025756836 -1.421305775642395 0 25.63275718688965 -38.40895080566406 0
          -10.047595024108887 37.22931671142578 0 -13.199994087219238 42.20060348510742 0
          5.295567512512207 -36.15607452392578 0 -29.575288772583008 45.0081901550293 0
          49.913726806640625 -26.80612564086914 0 -48.13642883300781 -11.60136604309082 0
          28.396940231323242 -2.904413938522339 0 4.178109169006348 -48.58454513549805 0
          39.71687316894531 -30.181116104125977 0 38.56006622314453 -5.592397212982178 0
          -34.80433654785156 -25.62860107421875 0 29.09688377380371 -2.5175929069519043 0
          -41.20625686645508 14.945207595825195 0 14.019556045532227 8.240516662597656 0
          21.679229736328125 -14.937201499938965 0 18.31905174255371 20.49851417541504 0
          -33.91625213623047 -36.54015350341797 0 -5.51885986328125 -46.20219802856445 0
          30.049287796020508 -33.1129264831543 0 32.68924331665039 -16.751556396484375 0
          15.891395568847656 -8.111693382263184 0 27.640636444091797 -38.4678955078125 0