<?xml version="1.0"?>
<VTKFile type="PolyData" version="0.1" byte_order="LittleEndian" header_type="UInt32" compressor="vtkZLibDataCompressor">
  <PolyData>
    <Piece NumberOfPoints="154" NumberOfVerts="0" NumberOfLines="0" NumberOfStrips="0" NumberOfPolys="0">
      <PointData>
        <DataArray type="Int32" Name="id" format="ascii" RangeMin="0" RangeMax="153">
          0 1 2 3 4 5
          6 7 8 9 10 11
          12 13 14 15 16 17
          18 19 20 21 22 23
          24 25 26 27 28 29
          30 31 32 33 34 35
          36 37 38 39 40 41
          42 43 44 45 46 47
          48 49 50 51 52 53
          54 55 56 57 58 59
          60 61 62 63 64 65
          66 67 68 69 70 71
          72 73 74 75 76 77
          78 79 80 81 82 83
          84 85 86 87 88 89
          90 91 92 93 94 95
          96 97 98 99 100 101
          102 103 104 105 106 107
          108 109 110 111 112 113
          114 115 116 117 118 119
          120 121 122 123 124 125
          126 127 128 129 130 131
          132 133 134 135 136 137
          138 139 140 141 142 143
          144 145 146 147 148 149
          150 151 152 153
        </DataArray>
        <DataArray type="Float64" Name="director" NumberOfComponents="3" format="ascii" RangeMin="0.9999999999999999" RangeMax="1">
          -0.9930998929086311 -0.11727149144129374 0 0.6187081468970083 -0.7856209193773228 0
          -0.35974882033573313 -0.9330491874853375 0 0.2797988614027378 0.9600586425618653 0
          -0.8895974132795615 0.4567454896179194 0 0.04367447299345816 0.9990458149698359 0
          0.66191494310065 0.7495789538801522 0 0.8474072481333496 0.5309434582053572 0
          0.9869654832262803 -0.16093208169881765 0 -0.456135670735953 -0.8899102482173482 0
          -0.8370483917449407 0.5471288603950702 0 -0.9918186354760852 0.12765498158065167 0
          -0.6206528603219144 -0.7840854717275574 0 -0.03533651073374155 0.9993754704860252 0
          0.8415316935596807 0.5402077459039029 0 0.8757723668591798 -0.4827243120517861 0
          -0.9104900791151059 -0.41353091279004545 0 -0.9142998665647962 0.4050379661211968 0
          0.9639239962468267 -0.26617762764655434 0 -0.997295036951947 0.0735024439798748 0
          0.8134793425302509 0.5815938095239243 0 0.4836895534304505 -0.8752396334160442 0
          -0.7418232704758476 -0.6705954334623204 0 0.6882670487599586 0.7254574209360993 0
          -0.9349251981938275 -0.3548448587513032 0 -0.8100629058252954 0.5863429786446483 0
          0.9146779349715364 -0.40418346734645866 0 0.8240583917347161 0.56650486936265 0
          -0.695931435450072 -0.7181082349843945 0 -0.39003812147751327 -0.9207987097049456 0
          0.832456505738059 0.5540903952013435 0 -0.9675436561884349 -0.25270392432551536 0
          -0.9557987282701841 -0.2940217526597289 0 -0.2648940824477936 0.9642775145590307 0
          0.990800733147264 -0.13532888529373185 0 0.36369922666636173 0.9315164370650099 0
          0.6040977697146487 0.7969102111441334 0 -0.8000847083694606 -0.5998870388942866 0
          -0.8603381558429475 -0.5097237071205892 0 0.9901046589954776 -0.14033090976491625 0
          -0.03271310582493707 0.9994647831250917 0 0.9312172822745045 -0.3644645019659471 0
          -0.07523314697272838 -0.9971659709379276 0 -0.8484844872823413 -0.5292202517300547 0
          0.7828492974471858 0.6222113607822084 0 -0.6424179078163629 0.7663545078596766 0
          0.11042306731199832 -0.9938846744997177 0 -0.9867081408896753 -0.1625024452186512 0
          -0.8511409328437273 -0.5249372461903516 0 -0.5964421883740281 0.8026560383673697 0
          0.6999375737854853 -0.7142040274342398 0 0.9856310029937562 0.1689127761228329 0
          0.9998016818868557 0.01991474067656153 0 0.007827544983797398 0.9999693643004903 0
          -0.4415123642815833 0.8972551655947635 0 -0.9398188597492408 0.34167310526237915 0
          -0.8425661290069226 -0.5385929058670286 0 -0.6048165414087787 0.7963648355109126 0
          -0.340832021440986 -0.9401242115595424 0 0.8628963508390181 -0.5053809332658943 0
          -0.9882826635495112 0.1526347828231941 0 -0.301141315241699 -0.9535795238230002 0
          -0.7371911373275272 -0.6756842657970858 0 0.9572304534933471 0.28932656100835447 0
          0.6196428283370016 -0.784883918353868 0 -0.9935699269245941 -0.11322014092491108 0
          0.8827739345346414 -0.46979802096882955 0 -0.9036042152436945 -0.42836832538579117 0
          -0.5233112623490224 0.8521416095336929 0 0.8646757962558891 -0.5023303368991806 0
          0.766678816420083 0.6420308345030641 0 -0.19800606591279474 0.9802007946649186 0
          0.29056249826002883 0.9568560156078294 0 -0.5068382050856276 0.8620412019535837 0
          -0.14166355975935022 -0.9899148629232258 0 -0.9740602791700256 0.22628869291949136 0
          -0.8300802780708728 0.55764391143254 0 0.1663752172702693 -0.9860625168204451 0
          -0.5716494022548094 0.8204979956719695 0 -0.08486649676031584 -0.9963923312268271 0
          -0.005356105816369716 0.9999856559623662 0 0.8930074620430634 -0.450041856648253 0
          -0.819055503677606 -0.5737142859432934 0 -0.9592658623590785 -0.2825048766171896 0
          -0.9330844655614698 0.3596573092929798 0 -0.15476821045899622 0.9879508090139508 0
          -0.9994586110748115 -0.032901135974442074 0 -0.38726844042626446 -0.9219670032326585 0
          0.889850232469252 0.4562527411144159 0 0.3886810968836683 0.9213723486871681 0
          0.7775998581935186 -0.6287594615887858 0 0.0242220205023943 -0.9997066038207318 0
          -0.8633007960678563 -0.5046897418301719 0 0.5552993707051112 -0.8316505329130184 0
          0.1364204660306923 0.9906510265719047 0 0.9878017186302444 -0.15571693765013367 0
          -0.7686863740187717 0.6396258737714361 0 0.9786050251220382 -0.20574791567813047 0
          -0.8634988272668394 -0.5043508454526403 0 0.7909608564917308 -0.6118667530581047 0
          -0.5409644207997287 0.8410454776222354 0 0.6198684756447697 -0.7847057237600792 0
          -0.9274363310313182 -0.3739810849269883 0 0.9216777042803059 0.38795645301062454 0
          -0.4022806051757151 0.9155164196776923 0 -0.8516129901039735 0.5241710742555044 0
          0.9810056221090544 -0.19397930144844625 0 0.6979189306405666 -0.7161767702554501 0
          -0.8048879237964998 -0.5934268532233438 0 -0.9900713989136013 -0.14056537643838407 0
          0.41510951581225636 0.9097714492564131 0 0.37411457110244384 -0.9273824926581451 0
          0.4715629669453246 -0.881832392354535 0 0.9999579022310553 -0.009175716084711601 0
          -0.5124502583133681 -0.8587169107188715 0 0.014325853518269977 -0.999897379695023 0
          -0.9966361056467629 -0.08195409032656306 0 -0.9146869702315726 -0.40416301969451157 0
          -0.798852740835012 0.6015266398592743 0 0.5789269736433131 -0.8153793958570419 0
          0.9904038601567278 0.13820345070457832 0 -0.31445054435819303 -0.949273856773079 0
          0.9216333334136165 -0.3880618491180311 0 -0.4577228113529559 0.8890949487918297 0
          0.48457164378433276 -0.8747515773293294 0 -0.7196827351205319 -0.6943030755869013 0
          -0.9642603422481463 0.2649565858164085 0 0.931871300953603 -0.3627890274788356 0
          -0.5818992873602112 0.8132608556728145 0 -0.7645022035191865 0.6446211141549029 0
          0.9266848596310974 0.37583928869996197 0 0.5951959132060199 0.8035806275059473 0
          0.9403995711881977 0.3400715314592708 0 -0.8437568546305184 0.5367256005297438 0
          -0.7293763901606385 0.6841126233861177 0 -0.9663565409473355 0.2572062125383069 0
          0.8109281393870758 0.5851457534240639 0 0.9101871801322398 0.41419717179493354 0
          -0.7744459422517612 -0.6326400892527928 0 -0.03163541880572819 0.9994994748757932 0
          0.9168697944265984 -0.39918639764917735 0 0.9622757348876363 0.27207611076031546 0
          -0.5809632156664074 0.8139298139536034 0 0.9138004468065205 0.40616344421452244 0
          0.7661196335364008 -0.642697990591266 0 -0.7366265203744679 -0.676299763034857 0
          0.15569898933552057 0.9878045478331721 0 -0.9992285105808278 0.03927319241442492 0
          -0.5563739509612159 0.8309320229066915 0 0.43858419254709674 0.8986901056803792 0
          0.6349683440128345 -0.7725381557577584 0 -0.043196395677172206 0.9990666000825477 0
          0.6490239611098546 0.7607679658774243 0 0.2773028597669591 -0.9607825581082674 0
          <InformationKey name="L2_NORM_RANGE" location="vtkDataArray" length="2">
            <Value index="0">
              1
            </Value>
            <Value index="1">
              1
            </Value>
          </InformationKey>
        </DataArray>
        <DataArray type="Float64" Name="velocity" NumberOfComponents="3" format="ascii" RangeMin="2.98391528750295" RangeMax="65.61664053985334">
          20.472372037415383 -30.489259884928693 0 -7.778161120144524 43.605506408926914 0
          -35.778279556590725 14.318100471258902 0 -2.7267860528004704 -6.306708942777526 0
          -25.56803597993237 0.5919415230237348 0 40.69440930810454 -42.34960265147567 0
          21.390392053252754 11.720491675449018 0 -31.091580543867785 -10.301819378431787 0
          -22.233594277397 35.80993014386058 0 40.8936574712134 11.727908496204755 0
          -31.918129728714472 1.502371966558826 0 32.46317064138093 -14.067556233339687 0
          31.61170207931397 -20.66117562390716 0 -32.788218903188394 -0.7210412736466054 0
          -30.467523066969363 36.43074923190564 0 -29.58028331655805 11.627227611362315 0
          37.80505508071815 -10.753091333426255 0 44.65772551607054 -33.330173144632525 0
          47.18774005931614 6.396489460552942 0 9.836891189866492 -36.87781496106794 0
          6.677739541459459 5.438027088135769 0 -18.951003944933063 -37.93510690561732 0
          23.77908201111339 -25.727634747998636 0 32.285914726045576 -31.45240287607238 0
          -18.732306147503376 38.172541468590836 0 17.42129460906331 23.929755673071398 0
          -43.74567596165927 -36.843843838172035 0 -41.00470913383489 -49.1685554695042 0
          -4.3489588147394045 13.430332075080756 0 2.9762992276979077 -0.21305715242312573 0
          -16.420210149222868 -24.717665071237764 0 -26.63245586108499 -32.68369682188443 0
          9.59810303037343 22.68931438280859 0 37.757309281314306 20.71597266757422 0
          -26.523439665569285 -2.200425364398683 0 -48.17882370239545 24.733119867345934 0
          15.472358145094617 -42.19330576503555 0 -2.7230899171649696 49.647506705142575 0
          3.209752212846098 39.943600631846664 0 27.290092728339346 -29.624030405099575 0
          40.710862227344634 -12.518743865476708 0 34.808888796398136 -17.330075407408792 0
          -17.326333983387784 15.921061981020685 0 8.676498234140595 -45.101679767889145 0
          26.99656655139428 -0.8247828969564566 0 -1.181598492863479 -7.087342925864128 0
          -10.527228461045638 27.645380145270124 0 47.47543864880045 24.850515939083976 0
          13.45020038299144 -42.781974126121774 0 13.33632968921519 2.89206325620421 0
          -20.383234879262602 -17.467213088655853 0 13.111992425538233 49.45054225750374 0
          1.6047826830209004 22.445391370448775 0 -25.442525168919026 -16.766088433362327 0
          24.860911549332883 18.296648546241826 0 18.127137052491975 -42.11576276898946 0
          -4.106371249565804 19.81468592825003 0 -43.2115168522386 -43.085994704941484 0
          2.7042817825837204 -23.795120132132308 0 -1.6624837545658195 -36.91945356486498 0
          -40.55592314206473 -37.96183180819797 0 46.98372058379586 25.62816454897687 0
          -23.182362140209666 22.4905983535036 0 -8.42374893276238 -2.5281598168396826 0
          -44.45585735866184 11.374414308737222 0 -0.9380815156004232 40.44748670579848 0
          43.5214270198436 41.82766196839604 0 -19.617472876146607 29.010177679462174 0
          -27.377259211045168 -5.104813753149479 0 1.0108912986547693 -26.93680745999526 0
          21.18807799653547 48.4452609761332 0 15.521324819791857 -22.733301715898534 0
          -3.0984436752635744 -49.699879474370995 0 -5.357606698271908 47.09441502974741 0
          -19.533649987483585 -28.48909553641595 0 -25.241492794096537 30.645102659141713 0
          -1.3628901407151872 -9.249808436218693 0 -28.437070584076316 4.0252086974848424 0
          22.302423751473526 -21.630608392707323 0 4.286209731170565 25.592468486596516 0
          -16.80227135673981 30.176297340482108 0 35.70724318896097 -48.51082997011254 0
          38.494266527440914 9.308694076898924 0 -41.37827709570729 42.48759424258512 0
          41.371957205314274 48.07567751376408 0 40.00221093710812 44.971458396046486 0
          43.45219546574209 -49.16757290067578 0 27.77940311086799 -47.40411222574361 0
          8.787704962513757 14.978077069606684 0 -17.176354508003442 -38.89206379839693 0
          -37.572734230027905 47.39150589914381 0 3.322947059262674 16.230028184641725 0
          20.82576325094061 -43.12614201683975 0 -29.404442159877867 -6.6570323329381935 0
          -48.88074135310182 -43.07374742736768 0 -15.693819004659524 -18.776991949103287 0
          49.2742614956165 -23.093566379026992 0 35.70662412955289 -14.438908494432013 0
          24.676827977366614 34.48562696853686 0 -28.28613766609157 46.49521791482232 0
          21.219265309149932 48.266786794162286 0 25.989900495501132 -30.673962513745963 0
          -14.741048879365302 -30.369965831724773 0 33.206792723445574 45.25947670903301 0
          26.73700517552618 36.1968809297727 0 -4.433626259916984 -16.731616061562868 0
          33.82599634129042 5.430878965379037 0 -37.91344272052366 -28.781627030961573 0
          -0.8760744559602713 -9.034520229977083 0 25.951148963832622 -14.29357740625877 0
          27.17860558051683 48.15404052238152 0 34.61617221348607 33.462162550860555 0
          -13.28055184508198 -44.93740558320786 0 47.55616001461492 34.25892934866374 0
          36.946038841117556 -42.45015674570037 0 -46.76239316488481 11.393180618063838 0
          23.568028568935404 11.552780427737098 0 16.263007945057282 45.12644264060411 0
          -23.411248530157515 41.93857265065735 0 -38.160345232049345 -18.69342940760771 0
          37.21153998486223 -26.635630373860984 0 30.80584946405935 5.653176675427417 0
          44.35923105765637 0.370346282237378 0 16.64168251311186 -34.7034267378138 0
          47.322877480901255 13.376690736606477 0 -32.1350217035443 -42.58571958176201 0
          -0.5025219679409361 28.59799073613067 0 -3.5320261053794297 38.30316610148137 0
          14.736889949280638 40.32409694969634 0 -49.402638529229115 19.356180838194604 0
          8.508964450503598 -39.46387075781778 0 49.03198966734128 -27.000797471280585 0
          -16.70921662991016 18.938285128010065 0 46.14207459237997 -27.3400906744995 0
          42.424140585792586 37.62461911345025 0 -6.825547086494495 -2.911259141055119 0
          6.210247997996007 33.76154121673389 0 -35.16911208657487 13.927818279591207 0
          49.5593687100304 13.93941034113417 0 -6.0481675260535965 -47.161165000275155 0
          -41.68490984500472 3.0367185203014984 0 28.200151364646487 23.664522522360798 0
          -30.983903256438072 -23.817273645282434 0 -4.775523168997552 -3.9973115200368454 0
          17.36371431475763 -32.304692769073746 0 -31.21691646176371 -40.35131875297581 0
          -17.61253928181918 -32.96735050248542 0 -47.52659271635095 33.064298464373394 0
          -25.51716157275273 -35.79649925661745 0 -34.4558032257712 -19.698927528483058 0
          -46.64276824331557 -9.071061809886274 0 28.312364537561464 -5.662808823633235 0
          -48.25117889494449 -21.421563451189467 0 45.139670111270334 -32.86849758057289 0
          <InformationKey name="L2_NORM_RANGE" location="vtkDataArray" length="2">
            <Value index="0">
              2.9839152875
            </Value>
            <Value index="1">
              65.61664054
            </Value>
          </InformationKey>
        </DataArray>
        <DataArray type="Float64" Name="force" NumberOfComponents="3" format="ascii" RangeMin="0.49999999999999994" RangeMax="0.5">
          -0.49654994645431555 -0.05863574572064687 0 0.30935407344850413 -0.3928104596886614 0
          -0.17987441016786657 -0.46652459374266875 0 0.1398994307013689 0.4800293212809327 0
          -0.44479870663978077 0.2283727448089597 0 0.02183723649672908 0.49952290748491796 0
          0.330957471550325 0.3747894769400761 0 0.4237036240666748 0.2654717291026786 0
          0.49348274161314015 -0.08046604084940882 0 -0.2280678353679765 -0.4449551241086741 0
          -0.41852419587247036 0.2735644301975351 0 -0.4959093177380426 0.06382749079032583 0
          -0.3103264301609572 -0.3920427358637787 0 -0.017668255366870774 0.4996877352430126 0
          0.42076584677984036 0.27010387295195143 0 0.4378861834295899 -0.24136215602589306 0
          -0.45524503955755297 -0.20676545639502272 0 -0.4571499332823981 0.2025189830605984 0
          0.48196199812341334 -0.13308881382327717 0 -0.4986475184759735 0.0367512219899374 0
          0.40673967126512545 0.2907969047619621 0 0.24184477671522525 -0.4376198167080221 0
          -0.3709116352379238 -0.3352977167311602 0 0.3441335243799793 0.36272871046804966 0
          -0.46746259909691373 -0.1774224293756516 0 -0.4050314529126477 0.2931714893223242 0
          0.4573389674857682 -0.20209173367322933 0 0.41202919586735803 0.283252434681325 0
          -0.347965717725036 -0.35905411749219723 0 -0.19501906073875663 -0.4603993548524728 0
          0.4162282528690295 0.27704519760067176 0 -0.4837718280942174 -0.12635196216275768 0
          -0.47789936413509204 -0.14701087632986445 0 -0.1324470412238968 0.48213875727951533 0
          0.495400366573632 -0.06766444264686593 0 0.18184961333318087 0.46575821853250493 0
          0.30204888485732434 0.3984551055720667 0 -0.4000423541847303 -0.2999435194471433 0
          -0.43016907792147374 -0.2548618535602946 0 0.4950523294977388 -0.07016545488245812 0
          -0.016356552912468535 0.49973239156254584 0 0.46560864113725225 -0.18223225098297355 0
          -0.03761657348636419 -0.4985829854689638 0 -0.42424224364117064 -0.26461012586502736 0
          0.3914246487235929 0.3111056803911042 0 -0.32120895390818144 0.3831772539298383 0
          0.05521153365599916 -0.49694233724985887 0 -0.49335407044483764 -0.0812512226093256 0
          -0.42557046642186364 -0.2624686230951758 0 -0.29822109418701404 0.4013280191836848 0
          0.34996878689274263 -0.3571020137171199 0 0.4928155014968781 0.08445638806141645 0
          0.49990084094342785 0.009957370338280765 0 0.003913772491898699 0.49998468215024516 0
          -0.22075618214079165 0.44862758279738174 0 -0.4699094298746204 0.17083655263118958 0
          -0.4212830645034613 -0.2692964529335143 0 -0.30240827070438936 0.3981824177554563 0
          -0.170416010720493 -0.4700621057797712 0 0.43144817541950903 -0.25269046663294714 0
          -0.4941413317747556 0.07631739141159705 0 -0.1505706576208495 -0.4767897619115001 0
          -0.3685955686637636 -0.3378421328985429 0 0.47861522674667356 0.14466328050417723 0
          0.3098214141685008 -0.392441959176934 0 -0.49678496346229706 -0.05661007046245554 0
          0.4413869672673207 -0.23489901048441478 0 -0.45180210762184725 -0.21418416269289559 0
          -0.2616556311745112 0.42607080476684644 0 0.43233789812794454 -0.2511651684495903 0
          0.3833394082100415 0.32101541725153204 0 -0.09900303295639737 0.4901003973324593 0
          0.14528124913001442 0.4784280078039147 0 -0.2534191025428138 0.43102060097679185 0
          -0.07083177987967511 -0.4949574314616129 0 -0.4870301395850128 0.11314434645974568 0
          -0.4150401390354364 0.27882195571627 0 0.08318760863513465 -0.49303125841022255 0
          -0.2858247011274047 0.41024899783598473 0 -0.04243324838015792 -0.49819616561341357 0
          -0.002678052908184858 0.4999928279811831 0 0.4465037310215317 -0.2250209283241265 0
          -0.409527751838803 -0.2868571429716467 0 -0.47963293117953926 -0.1412524383085948 0
          -0.4665422327807349 0.1798286546464899 0 -0.07738410522949811 0.4939754045069754 0
          -0.49972930553740574 -0.016450567987221037 0 -0.19363422021313223 -0.4609835016163292 0
          0.444925116234626 0.22812637055720794 0 0.19434054844183415 0.46068617434358405 0
          0.3887999290967593 -0.3143797307943929 0 0.01211101025119715 -0.4998533019103659 0
          -0.43165039803392813 -0.25234487091508595 0 0.2776496853525556 -0.4158252664565092 0
          0.06821023301534615 0.49532551328595237 0 0.4939008593151222 -0.07785846882506683 0
          -0.38434318700938586 0.31981293688571805 0 0.4893025125610191 -0.10287395783906524 0
          -0.4317494136334197 -0.25217542272632015 0 0.3954804282458654 -0.30593337652905234 0
          -0.27048221039986436 0.4205227388111177 0 0.30993423782238483 -0.3923528618800396 0
          -0.4637181655156591 -0.18699054246349414 0 0.46083885214015297 0.19397822650531227 0
          -0.20114030258785756 0.45775820983884613 0 -0.42580649505198676 0.2620855371277522 0
          0.4905028110545272 -0.09698965072422312 0 0.3489594653202833 -0.35808838512772506 0
          -0.4024439618982499 -0.2967134266116719 0 -0.49503569945680065 -0.07028268821919204 0
          0.20755475790612818 0.45488572462820653 0 0.18705728555122192 -0.46369124632907255 0
          0.2357814834726623 -0.4409161961772675 0 0.49997895111552765 -0.0045878580423558005 0
          -0.25622512915668405 -0.42935845535943573 0 0.007162926759134988 -0.4999486898475115 0
          -0.49831805282338143 -0.04097704516328153 0 -0.4573434851157863 -0.20208150984725579 0
          -0.399426370417506 0.3007633199296372 0 0.28946348682165657 -0.40768969792852094 0
          0.4952019300783639 0.06910172535228916 0 -0.15722527217909651 -0.4746369283865395 0
          0.46081666670680826 -0.19403092455901555 0 -0.22886140567647795 0.44454747439591485 0
          0.24228582189216638 -0.4373757886646647 0 -0.35984136756026597 -0.34715153779345065 0
          -0.48213017112407314 0.13247829290820426 0 0.4659356504768015 -0.1813945137394178 0
          -0.2909496436801056 0.40663042783640724 0 -0.38225110175959326 0.32231055707745143 0
          0.4633424298155487 0.18791964434998099 0 0.29759795660300997 0.40179031375297364 0
          0.47019978559409886 0.1700357657296354 0 -0.4218784273152592 0.2683628002648719 0
          -0.36468819508031924 0.34205631169305883 0 -0.48317827047366774 0.12860310626915344 0
          0.4054640696935379 0.29257287671203197 0 0.4550935900661199 0.20709858589746677 0
          -0.3872229711258806 -0.3163200446263964 0 -0.015817709402864095 0.4997497374378966 0
          0.4584348972132992 -0.19959319882458867 0 0.48113786744381815 0.13603805538015773 0
          -0.2904816078332037 0.4069649069768017 0 0.45690022340326025 0.20308172210726122 0
          0.3830598167682004 -0.321348995295633 0 -0.3683132601872339 -0.3381498815174285 0
          0.07784949466776028 0.49390227391658603 0 -0.4996142552904139 0.01963659620721246 0
          -0.27818697548060795 0.4154660114533458 0 0.21929209627354837 0.4493450528401896 0
          0.31748417200641726 -0.3862690778788792 0 -0.021598197838586103 0.49953330004127383 0
          0.3245119805549273 0.3803839829387122 0 0.13865142988347956 -0.4803912790541337 0
          <InformationKey name="L2_NORM_RANGE" location="vtkDataArray" length="2">
            <Value index="0">
              0.5
            </Value>
            <Value index="1">
              0.5
            </Value>
          </InformationKey>
        </DataArray>
        <DataArray type="Float64" Name="radius" format="ascii" RangeMin="1" RangeMax="1">
          1 1 1 1 1 1
          1 1 1 1 1 1
          1 1 1 1 1 1
          1 1 1 1 1 1
          1 1 1 1 1 1
          1 1 1 1 1 1
          1 1 1 1 1 1
          1 1 1 1 1 1
          1 1 1 1 1 1
          1 1 1 1 1 1
          1 1 1 1 1 1
          1 1 1 1 1 1
          1 1 1 1 1 1
          1 1 1 1 1 1
          1 1 1 1 1 1
          1 1 1 1 1 1
          1 1 1 1 1 1
          1 1 1 1 1 1
          1 1 1 1 1 1
          1 1 1 1 1 1
          1 1 1 1 1 1
          1 1 1 1 1 1
          1 1 1 1 1 1
          1 1 1 1 1 1
          1 1 1 1 1 1
          1 1 1 1
        </DataArray>
      </PointData>
      <CellData>
      </CellData>
      <Points>
        <DataArray type="Float32" Name="Points" NumberOfComponents="3" format="ascii" RangeMin="2.6992823309464526" RangeMax="67.73032695544055">
          -37.49503707885742 34.12541580200195 0 46.904014587402344 -28.312881469726562 0
          -19.658109664916992 4.6180901527404785 0 -31.479881286621094 49.50149917602539 0
          48.924251556396484 46.83817672729492 0 22.42978858947754 48.3281364440918 0
          -39.759002685546875 29.37911033630371 0 -19.455228805541992 -49.99166488647461 0
          -39.06752395629883 13.646026611328125 0 37.60143280029297 0.6995643377304077 0
          29.696956634521484 -13.473880767822266 0 -29.02279281616211 18.003055572509766 0
          -10.7225923538208 23.902170181274414 0 -3.229001522064209 -7.5173211097717285 0
          -32.53221893310547 -19.40866470336914 0 28.602201461791992 -18.122570037841797 0
          37.00370788574219 -34.96621322631836 0 48.96369171142578 31.22929573059082 0
          -37.70835876464844 26.435171127319336 0 -1.3732051849365234 15.48576831817627 0
          -38.39826583862305 -27.86800193786621 0 -45.00047302246094 -46.24108123779297 0
          -9.140789985656738 -4.205591201782227 0 -1.5965749025344849 29.528453826904297 0
          41.4382438659668 30.383419036865234 0 20.88332748413086 -49.886112213134766 0
          21.048946380615234 14.588050842285156 0 -4.430637836456299 27.022985458374023 0
          7.758469581604004 37.735477447509766 0 30.81658935546875 -47.76491165161133 0
          32.999351501464844 32.932830810546875 0 43.695499420166016 -8.579254150390625 0
          -7.765103816986084 8.008261680603027 0 -34.048553466796875 26.615619659423828 0
          -26.22662353515625 31.48084259033203 0 49.56237030029297 -17.92222023010254 0
          -20.381675720214844 -48.72726058959961 0 -29.07725715637207 40.68443298339844 0
          34.17595291137695 45.940513610839844 0 27.564069747924805 49.26588439941406 0
          -43.18972396850586 29.112335205078125 0 9.677434921264648 23.61480712890625 0
          19.434972763061523 18.47503662109375 0 -10.625628471374512 6.224128723144531 0
          -29.740737915039062 2.0875790119171143 0 -9.695120811462402 -14.622761726379395 0
          8.841732025146484 -13.838600158691406 0 46.589229583740234 -35.074710845947266 0
          -10.871761322021484 -11.818730354309082 0 22.23250961303711 -11.919469833374023 0
          42.324337005615234 -6.416020393371582 0 35.12668991088867 12.327329635620117 0
          -36.96717071533203 -2.4720780849456787 0 -15.330252647399902 3.8138272762298584 0
          21.949174880981445 48.572418212890625 0 21.57758331298828 41.8317756652832 0
          1.1474088430404663 6.008798122406006 0 0.9010425806045532 -3.8121395111083984 0
          4.70209264755249 -5.87520694732666 0 34.90449142456055 10.713844299316406 0
          1.2009539604187012 47.73540115356445 0 -47.01932907104492 47.74583053588867 0
          -13.991814613342285 17.256589889526367 0 -15.25838851928711 35.6635627746582 0
          -45.286869049072266 15.284518241882324 0 24.461170196533203 -36.05874252319336 0
          47.94032669067383 -40.534393310546875 0 -21.81376838684082 30.765331268310547 0
          -42.37795639038086 13.550280570983887 0 -48.63317108154297 18.708969116210938 0
          3.2258052825927734 -5.803485870361328 0 -29.942705154418945 -35.05709457397461 0
          -11.079168319702148 26.421581268310547 0 -46.65903854370117 -24.548725128173828 0
          1.192912220954895 33.03125762939453 0 47.54014205932617 32.45850372314453 0
          -19.549293518066406 -43.78567886352539 0 -24.526453018188477 3.687676191329956 0
          39.3702392578125 -14.786675453186035 0 -47.091304779052734 -33.57795333862305 0
          38.24352264404297 -29.773845672607422 0 -23.20916748046875 -0.3725460469722748 0
          -27.56947135925293 -0.4383418560028076 0 44.31544876098633 15.634913444519043 0
          26.543201446533203 -6.475515842437744 0 5.075348854064941 -44.265926361083984 0
          -16.927043914794922 -8.755197525024414 0 40.61379623413086 31.390865325927734 0
          -24.577606201171875 -36.410030364990234 0 -1.4719058275222778 -11.75011157989502 0
          21.872514724731445 -21.101547241210938 0 11.649351119995117 31.487751007080078 0
          -18.288339614868164 -11.992207527160645 0 -15.080208778381348 31.347196578979492 0
          17.990234375 -12.350940704345703 0 -4.799864292144775 -19.129335403442383 0
          40.76591491699219 -1.339233636856079 0 25.945249557495117 -38.198402404785156 0
          -9.731593132019043 37.24286651611328 0 -12.897431373596191 42.10652160644531 0
          5.026971817016602 -35.985172271728516 0 -29.490238189697266 44.902000427246094 0
          49.613590240478516 -26.749826431274414 0 -47.69099426269531 -11.530641555786133 0
          28.525634765625 -3.238182306289673 0 4.200616836547852 -48.4808235168457 0
          40.0198974609375 -29.766963958740234 0 38.86289978027344 -5.785063743591309 0
          -34.6784553527832 -25.766679763793945 0 29.0040340423584 -2.7278645038604736 0
          -40.84947204589844 15.455483436584473 0 13.910867691040039 8.360812187194824 0
          21.39061737060547 -14.812464714050293 0 18.20392417907715 20.29723358154297 0
          -34.049556732177734 -36.511173248291016 0 -5.325427532196045 -46.3934211730957 0
          30.62883186340332 -33.15983200073242 0 32.51353073120117 -16.817340850830078 0
          16.260221481323242 -8.093352317810059 0 27.637802124023438 -38.39230728149414 0