<?xml version="1.0"?>
<VTKFile type="PolyData" version="0.1" byte_order="LittleEndian" header_type="UInt32" compressor="vtkZLibDataCompressor">
  <PolyData>
    <Piece NumberOfPoints="154" NumberOfVerts="0" NumberOfLines="0" NumberOfStrips="0" NumberOfPolys="0">
      <PointData>
        <DataArray type="Int32" Name="id" format="ascii" RangeMin="0" RangeMax="153">
          0 1 2 3 4 5
          6 7 8 9 10 11
          12 13 14 15 16 17
          18 19 20 21 22 23
          24 25 26 27 28 29
          30 31 32 33 34 35
          36 37 38 39 40 41
          42 43 44 45 46 47
          48 49 50 51 52 53
          54 55 56 57 58 59
          60 61 62 63 64 65
          66 67 68 69 70 71
          72 73 74 75 76 77
          78 79 80 81 82 83
          84 85 86 87 88 89
          90 91 92 93 94 95
          96 97 98 99 100 101
          102 103 104 105 106 107
          108 109 110 111 112 113
          114 115 116 117 118 119
          120 121 122 123 124 125
          126 127 128 129 130 131
          132 133 134 135 136 137
          138 139 140 141 142 143
          144 145 146 147 148 149
          150 151 152 153
        </DataArray>
        <DataArray type="Float64" Name="director" NumberOfComponents="3" format="ascii" RangeMin="0.9999999999999999" RangeMax="1">
          -0.9837118424692303 -0.17975263832776475 0 0.5879518422209641 -0.8088959334976129 0
          -0.28690075226815587 -0.9579603114680515 0 0.2602440156326078 0.9655428795902412 0
          -0.8073256323388306 0.5901061966872635 0 -0.0992997708553839 0.995057563916816 0
          0.6939467088502935 0.7200263642922013 0 0.856807486545561 0.5156364329636515 0
          0.9999631359405824 -0.008586428819727269 0 -0.35956753769370775 -0.9331190630551303 0
          -0.812269740553358 0.5832819803331666 0 -0.9949951443684703 0.09992328398910313 0
          -0.6943460191069161 -0.7196413035327934 0 -0.1492385197710893 0.9888012258368889 0
          0.8768469633809655 0.480769594306441 0 0.8766312782401583 -0.4811627604158765 0
          -0.8829357147157052 -0.4694939016424674 0 -0.8973726247599557 0.4412735799154849 0
          0.9751267324360495 -0.22164804463065554 0 -0.9866116395810464 -0.16308731600955204 0
          0.799993731196245 0.6000083583140406 0 0.44539634230493086 -0.8953335123077818 0
          -0.7508250198921038 -0.6605011654070128 0 0.7326885146644526 0.6805641339938494 0
          -0.8952054145220242 -0.4456537510337491 0 -0.7375080973695822 0.6753382902770276 0
          0.9482219526070479 -0.3176084517044176 0 0.8357338017799131 0.5491347854238456 0
          -0.7196462484529206 -0.6943408940049818 0 -0.18129043950694831 -0.9834295991800214 0
          0.728548418794236 0.6849943076204491 0 -0.9531803222402873 -0.3024025021290368 0
          -0.9781374258527412 -0.20795955411130607 0 -0.28130706147414686 0.9596178078614321 0
          0.9944821172635179 -0.10490623643554589 0 0.36518903873596087 0.9309333842907906 0
          0.6678968915403468 0.7442538157582682 0 -0.8086281714676866 -0.5883200492154127 0
          -0.8821306582081859 -0.4710047790088681 0 0.9853975725241836 -0.17026926928675779 0
          0.17279729817660258 0.9849574070704105 0 0.8852372385702977 -0.46513979774733727 0
          -0.16184114243568565 -0.9868168242460766 0 -0.837270841011255 -0.546788385751111 0
          0.8373271751254142 0.5467021143150024 0 -0.6205204122459952 0.7841902944987652 0
          0.11671404651594315 -0.9931655608939902 0 -0.9958107331946082 -0.0914384145445274 0
          -0.8083726197435291 -0.5886711370952237 0 -0.6654549015366524 0.7464380577253844 0
          0.7796876956327655 -0.6261685853497188 0 0.9930889383782904 0.11736422142493118 0
          0.9893825708272931 0.1453345400900158 0 -0.18150050383535954 0.9833908516492873 0
          -0.4784743957541085 0.8781015047292317 0 -0.9432723703991702 0.3320199319943467 0
          -0.8740588682953413 -0.4858200230067377 0 -0.6249559468332305 0.7806600185213666 0
          -0.3816203801048278 -0.9243191469880123 0 0.7866930665217372 -0.6173443278160298 0
          -0.984687672901942 0.17432781428951036 0 -0.33436513275534857 -0.9424436099828457 0
          -0.7983662264679245 -0.6021722082887639 0 0.9215837847403506 0.38817950448684324 0
          0.41484031144989586 -0.9098942334118584 0 -0.988357934591501 -0.152146617215179 0
          0.8394160092407813 -0.5434894326758162 0 -0.9296467020261373 -0.36845218063125407 0
          -0.6125584809302619 0.790425269991041 0 0.8632064714177721 -0.5048510549681747 0
          0.7939271271457718 0.6080129248478698 0 -0.22988908060140628 0.973216836383465 0
          0.2436570491153284 0.9698614552689525 0 -0.45948104248913 0.8881875768063311 0
          -0.0824891229900663 -0.996591964942689 0 -0.9826197096446271 0.18563002509806653 0
          -0.9014997023091929 0.43277972080082105 0 0.05863246479563155 -0.9982796372119332 0
          -0.6411323021095395 0.7674303689532505 0 -0.12906165554258353 -0.9916365710625075 0
          -0.02932044526343515 0.9995700633220034 0 0.8969110906043044 -0.4422109174941265 0
          -0.8399517917007999 -0.5426610245987968 0 -0.9707501538524403 -0.24009193821422536 0
          -0.8990500623497261 0.4378458466046626 0 -0.2400665599684381 0.9707564302052911 0
          -0.9976618034435565 -0.06834417275635526 0 -0.37418465303601744 -0.9273542178867336 0
          0.9493341517136757 0.31426846547192033 0 0.3657428147584609 0.9307159574502621 0
          0.7837492921892227 -0.6210773277079854 0 0.05498598073401695 -0.998487126568349 0
          -0.939055743564307 -0.34376490582793134 0 0.44895148681358676 -0.8935561328130818 0
          0.1191566746354485 0.9928754639378605 0 0.9976891444984918 -0.06794388088612228 0
          -0.7714696165255733 0.6362661634708268 0 0.9412509983219748 -0.33770779996601474 0
          -0.9005088081710086 -0.4348377702160077 0 0.7557460917343477 -0.6548647530813205 0
          -0.5417801190969456 0.8405202570737361 0 0.7040938185927893 -0.7101069599852013 0
          -0.9002576442975958 -0.435357524207109 0 0.9436607506228546 0.3309144719318131 0
          -0.3238018792504727 0.9461249087693772 0 -0.869012324218978 0.49479044084898194 0
          0.9830303592782798 -0.18344294136656275 0 0.7562018026802372 -0.6543384702301704 0
          -0.7863961535948416 -0.6177225021085424 0 -0.9854566354710578 -0.16992710085816998 0
          0.278629095687059 0.9603987854202085 0 0.4583223006141586 -0.8887860646745902 0
          0.394576733514665 -0.9188629937966253 0 0.991301645497197 0.13160945115967002 0
          -0.6302983264907274 -0.7763530251264488 0 0.006847359037871525 -0.9999765565623059 0
          -0.9999012248032854 0.014054915043845904 0 -0.9907810598480379 -0.1354728439444558 0
          -0.8532179724707054 0.5215544951900795 0 0.6048898838240302 -0.7963091286977384 0
          0.9869307825503157 0.16114475000638856 0 -0.2570671757405347 -0.9663935363798668 0
          0.931861590579791 -0.36281396886297246 0 -0.4303156871728555 0.9026784640019685 0
          0.4551216742549354 -0.8904292569448651 0 -0.7011553006421373 -0.7130085864710425 0
          -0.9537128934036584 0.3007186674545201 0 0.9057459818684618 -0.4238209720260857 0
          -0.7052034939902128 0.7090049591251079 0 -0.7450907713943458 0.6669630742274858 0
          0.9512821213568854 0.3083217890236499 0 0.5614744934609284 0.8274940442038202 0
          0.9252383368210724 0.3793863730770726 0 -0.8271803211293918 0.5619365767916129 0
          -0.741145047665303 0.6713449324462022 0 -0.9740411488808723 0.2263710235141198 0
          0.8876981463763947 0.4604258908010203 0 0.8425973041762768 0.5385441328200233 0
          -0.762084338276693 -0.6474777690032106 0 -0.0033414297887092367 0.9999944174079008 0
          0.9164197349753049 -0.40021852699218186 0 0.954301568162183 0.2988453061421549 0
          -0.5150001771068101 0.8571900708594065 0 0.8946149734091864 0.4468378333938171 0
          0.7972163101894335 -0.6036937590930893 0 -0.6201469058601723 -0.7844857010500922 0
          0.20475865475532168 0.9788124913908643 0 -0.9825387153202493 0.1860582513538009 0
          -0.5514100448242373 0.8342343570405937 0 0.33944750626797615 0.9406249999274165 0
          0.6567489789816401 -0.7541092617164792 0 0.005227922233771659 0.9999863343211834 0
          0.4776348694512279 0.8785584394246683 0 0.29455936582470166 -0.9556331827667714 0
          <InformationKey name="L2_NORM_RANGE" location="vtkDataArray" length="2">
            <Value index="0">
              1
            </Value>
            <Value index="1">
              1
            </Value>
          </InformationKey>
        </DataArray>
        <DataArray type="Float64" Name="velocity" NumberOfComponents="3" format="ascii" RangeMin="2.98391528750295" RangeMax="65.61664053985334">
          20.472372037415383 -30.489259884928693 0 -7.778161120144524 43.605506408926914 0
          -35.778279556590725 14.318100471258902 0 -2.7267860528004704 -6.306708942777526 0
          -25.56803597993237 0.5919415230237348 0 40.69440930810454 -42.34960265147567 0
          21.390392053252754 11.720491675449018 0 -31.091580543867785 -10.301819378431787 0
          -22.233594277397 35.80993014386058 0 40.8936574712134 11.727908496204755 0
          -31.918129728714472 1.502371966558826 0 32.46317064138093 -14.067556233339687 0
          31.61170207931397 -20.66117562390716 0 -32.788218903188394 -0.7210412736466054 0
          -30.467523066969363 36.43074923190564 0 -29.58028331655805 11.627227611362315 0
          37.80505508071815 -10.753091333426255 0 44.65772551607054 -33.330173144632525 0
          47.18774005931614 6.396489460552942 0 9.836891189866492 -36.87781496106794 0
          6.677739541459459 5.438027088135769 0 -18.951003944933063 -37.93510690561732 0
          23.77908201111339 -25.727634747998636 0 32.285914726045576 -31.45240287607238 0
          -18.732306147503376 38.172541468590836 0 17.42129460906331 23.929755673071398 0
          -43.74567596165927 -36.843843838172035 0 -41.00470913383489 -49.1685554695042 0
          -4.3489588147394045 13.430332075080756 0 2.9762992276979077 -0.21305715242312573 0
          -16.420210149222868 -24.717665071237764 0 -26.63245586108499 -32.68369682188443 0
          9.59810303037343 22.68931438280859 0 37.757309281314306 20.71597266757422 0
          -26.523439665569285 -2.200425364398683 0 -48.17882370239545 24.733119867345934 0
          15.472358145094617 -42.19330576503555 0 -2.7230899171649696 49.647506705142575 0
          3.209752212846098 39.943600631846664 0 27.290092728339346 -29.624030405099575 0
          40.710862227344634 -12.518743865476708 0 34.808888796398136 -17.330075407408792 0
          -17.326333983387784 15.921061981020685 0 8.676498234140595 -45.101679767889145 0
          26.99656655139428 -0.8247828969564566 0 -1.181598492863479 -7.087342925864128 0
          -10.527228461045638 27.645380145270124 0 47.47543864880045 24.850515939083976 0
          13.45020038299144 -42.781974126121774 0 13.33632968921519 2.89206325620421 0
          -20.383234879262602 -17.467213088655853 0 13.111992425538233 49.45054225750374 0
          1.6047826830209004 22.445391370448775 0 -25.442525168919026 -16.766088433362327 0
          24.860911549332883 18.296648546241826 0 18.127137052491975 -42.11576276898946 0
          -4.106371249565804 19.81468592825003 0 -43.2115168522386 -43.085994704941484 0
          2.7042817825837204 -23.795120132132308 0 -1.6624837545658195 -36.91945356486498 0
          -40.55592314206473 -37.96183180819797 0 46.98372058379586 25.62816454897687 0
          -23.182362140209666 22.4905983535036 0 -8.42374893276238 -2.5281598168396826 0
          -44.45585735866184 11.374414308737222 0 -0.9380815156004232 40.44748670579848 0
          43.5214270198436 41.82766196839604 0 -19.617472876146607 29.010177679462174 0
          -27.377259211045168 -5.104813753149479 0 1.0108912986547693 -26.93680745999526 0
          21.18807799653547 48.4452609761332 0 15.521324819791857 -22.733301715898534 0
          -3.0984436752635744 -49.699879474370995 0 -5.357606698271908 47.09441502974741 0
          -19.533649987483585 -28.48909553641595 0 -25.241492794096537 30.645102659141713 0
          -1.3628901407151872 -9.249808436218693 0 -28.437070584076316 4.0252086974848424 0
          22.302423751473526 -21.630608392707323 0 4.286209731170565 25.592468486596516 0
          -16.80227135673981 30.176297340482108 0 35.70724318896097 -48.51082997011254 0
          38.494266527440914 9.308694076898924 0 -41.37827709570729 42.48759424258512 0
          41.371957205314274 48.07567751376408 0 40.00221093710812 44.971458396046486 0
          43.45219546574209 -49.16757290067578 0 27.77940311086799 -47.40411222574361 0
          8.787704962513757 14.978077069606684 0 -17.176354508003442 -38.89206379839693 0
          -37.572734230027905 47.39150589914381 0 3.322947059262674 16.230028184641725 0
          20.82576325094061 -43.12614201683975 0 -29.404442159877867 -6.6570323329381935 0
          -48.88074135310182 -43.07374742736768 0 -15.693819004659524 -18.776991949103287 0
          49.2742614956165 -23.093566379026992 0 35.70662412955289 -14.438908494432013 0
          24.676827977366614 34.48562696853686 0 -28.28613766609157 46.49521791482232 0
          21.219265309149932 48.266786794162286 0 25.989900495501132 -30.673962513745963 0
          -14.741048879365302 -30.369965831724773 0 33.206792723445574 45.25947670903301 0
          26.73700517552618 36.1968809297727 0 -4.433626259916984 -16.731616061562868 0
          33.82599634129042 5.430878965379037 0 -37.91344272052366 -28.781627030961573 0
          -0.8760744559602713 -9.034520229977083 0 25.951148963832622 -14.29357740625877 0
          27.17860558051683 48.15404052238152 0 34.61617221348607 33.462162550860555 0
          -13.28055184508198 -44.93740558320786 0 47.55616001461492 34.25892934866374 0
          36.946038841117556 -42.45015674570037 0 -46.76239316488481 11.393180618063838 0
          23.568028568935404 11.552780427737098 0 16.263007945057282 45.12644264060411 0
          -23.411248530157515 41.93857265065735 0 -38.160345232049345 -18.69342940760771 0
          37.21153998486223 -26.635630373860984 0 30.80584946405935 5.653176675427417 0
          44.35923105765637 0.370346282237378 0 16.64168251311186 -34.7034267378138 0
          47.322877480901255 13.376690736606477 0 -32.1350217035443 -42.58571958176201 0
          -0.5025219679409361 28.59799073613067 0 -3.5320261053794297 38.30316610148137 0
          14.736889949280638 40.32409694969634 0 -49.402638529229115 19.356180838194604 0
          8.508964450503598 -39.46387075781778 0 49.03198966734128 -27.000797471280585 0
          -16.70921662991016 18.938285128010065 0 46.14207459237997 -27.3400906744995 0
          42.424140585792586 37.62461911345025 0 -6.825547086494495 -2.911259141055119 0
          6.210247997996007 33.76154121673389 0 -35.16911208657487 13.927818279591207 0
          49.5593687100304 13.93941034113417 0 -6.0481675260535965 -47.161165000275155 0
          -41.68490984500472 3.0367185203014984 0 28.200151364646487 23.664522522360798 0
          -30.983903256438072 -23.817273645282434 0 -4.775523168997552 -3.9973115200368454 0
          17.36371431475763 -32.304692769073746 0 -31.21691646176371 -40.35131875297581 0
          -17.61253928181918 -32.96735050248542 0 -47.52659271635095 33.064298464373394 0
          -25.51716157275273 -35.79649925661745 0 -34.4558032257712 -19.698927528483058 0
          -46.64276824331557 -9.071061809886274 0 28.312364537561464 -5.662808823633235 0
          -48.25117889494449 -21.421563451189467 0 45.139670111270334 -32.86849758057289 0
          <InformationKey name="L2_NORM_RANGE" location="vtkDataArray" length="2">
            <Value index="0">
              2.9839152875
            </Value>
            <Value index="1">
              65.61664054
            </Value>
          </InformationKey>
        </DataArray>
        <DataArray type="Float64" Name="force" NumberOfComponents="3" format="ascii" RangeMin="0.49999999999999994" RangeMax="0.5">
          -0.49185592123461513 -0.08987631916388238 0 0.29397592111048204 -0.40444796674880645 0
          -0.14345037613407793 -0.47898015573402575 0 0.1301220078163039 0.4827714397951206 0
          -0.4036628161694153 0.29505309834363175 0 -0.04964988542769195 0.497528781958408 0
          0.34697335442514676 0.3600131821461007 0 0.4284037432727805 0.25781821648182573 0
          0.4999815679702912 -0.004293214409863634 0 -0.17978376884685388 -0.46655953152756513 0
          -0.406134870276679 0.2916409901665833 0 -0.4974975721842351 0.04996164199455157 0
          -0.34717300955345803 -0.3598206517663967 0 -0.07461925988554464 0.49440061291844445 0
          0.43842348169048273 0.2403847971532205 0 0.43831563912007915 -0.24058138020793826 0
          -0.4414678573578526 -0.2347469508212337 0 -0.44868631237997786 0.22063678995774244 0
          0.48756336621802476 -0.11082402231532777 0 -0.4933058197905232 -0.08154365800477602 0
          0.3999968655981225 0.3000041791570203 0 0.22269817115246543 -0.4476667561538909 0
          -0.3754125099460519 -0.3302505827035064 0 0.3663442573322263 0.3402820669969247 0
          -0.4476027072610121 -0.22282687551687455 0 -0.3687540486847911 0.3376691451385138 0
          0.47411097630352395 -0.1588042258522088 0 0.41786690088995654 0.2745673927119228 0
          -0.3598231242264603 -0.3471704470024909 0 -0.09064521975347416 -0.4917147995900107 0
          0.364274209397118 0.34249715381022455 0 -0.47659016112014363 -0.1512012510645184 0
          -0.4890687129263706 -0.10397977705565303 0 -0.14065353073707343 0.47980890393071607 0
          0.49724105863175894 -0.052453118217772945 0 0.18259451936798043 0.4654666921453953 0
          0.3339484457701734 0.3721269078791341 0 -0.4043140857338433 -0.29416002460770635 0
          -0.44106532910409296 -0.23550238950443406 0 0.4926987862620918 -0.08513463464337889 0
          0.08639864908830129 0.49247870353520523 0 0.44261861928514884 -0.23256989887366863 0
          -0.08092057121784282 -0.4934084121230383 0 -0.4186354205056275 -0.2733941928755555 0
          0.4186635875627071 0.2733510571575012 0 -0.3102602061229976 0.3920951472493826 0
          0.058357023257971576 -0.4965827804469951 0 -0.4979053665973041 -0.0457192072722637 0
          -0.40418630987176457 -0.29433556854761184 0 -0.3327274507683262 0.3732190288626922 0
          0.38984384781638276 -0.3130842926748594 0 0.4965444691891452 0.05868211071246559 0
          0.49469128541364654 0.0726672700450079 0 -0.09075025191767977 0.49169542582464365 0
          -0.23923719787705425 0.4390507523646158 0 -0.4716361851995851 0.16600996599717335 0
          -0.43702943414767065 -0.24291001150336886 0 -0.31247797341661526 0.3903300092606833 0
          -0.1908101900524139 -0.46215957349400616 0 0.3933465332608686 -0.3086721639080149 0
          -0.492343836450971 0.08716390714475518 0 -0.16718256637767429 -0.47122180499142285 0
          -0.3991831132339623 -0.30108610414438197 0 0.4607918923701753 0.19408975224342162 0
          0.20742015572494793 -0.4549471167059292 0 -0.4941789672957505 -0.0760733086075895 0
          0.41970800462039065 -0.2717447163379081 0 -0.46482335101306865 -0.18422609031562703 0
          -0.30627924046513094 0.3952126349955205 0 0.43160323570888603 -0.25242552748408736 0
          0.3969635635728859 0.3040064624239349 0 -0.11494454030070314 0.4866084181917325 0
          0.1218285245576642 0.48493072763447626 0 -0.229740521244565 0.44409378840316555 0
          -0.04124456149503315 -0.4982959824713445 0 -0.49130985482231354 0.09281501254903327 0
          -0.4507498511545964 0.21638986040041053 0 0.029316232397815774 -0.4991398186059666 0
          -0.32056615105476977 0.3837151844766252 0 -0.06453082777129177 -0.49581828553125373 0
          -0.014660222631717575 0.4997850316610017 0 0.4484555453021522 -0.22110545874706325 0
          -0.41997589585039996 -0.2713305122993984 0 -0.4853750769262202 -0.12004596910711268 0
          -0.44952503117486303 0.2189229233023313 0 -0.12003327998421905 0.48537821510264556 0
          -0.49883090172177824 -0.03417208637817763 0 -0.18709232651800872 -0.4636771089433668 0
          0.4746670758568379 0.15713423273596017 0 0.18287140737923044 0.46535797872513107 0
          0.39187464609461137 -0.3105386638539927 0 0.027492990367008474 -0.4992435632841745 0
          -0.4695278717821535 -0.17188245291396567 0 0.22447574340679338 -0.4467780664065409 0
          0.05957833731772425 0.49643773196893026 0 0.4988445722492459 -0.03397194044306114 0
          -0.38573480826278667 0.3181330817354134 0 0.4706254991609874 -0.16885389998300737 0
          -0.4502544040855043 -0.21741888510800386 0 0.37787304586717385 -0.32743237654066026 0
          -0.2708900595484728 0.42026012853686806 0 0.35204690929639465 -0.3550534799926007 0
          -0.4501288221487979 -0.2176787621035545 0 0.4718303753114273 0.16545723596590656 0
          -0.16190093962523636 0.4730624543846886 0 -0.434506162109489 0.24739522042449097 0
          0.4915151796391399 -0.09172147068328138 0 0.3781009013401186 -0.3271692351150852 0
          -0.3931980767974208 -0.3088612510542712 0 -0.4927283177355289 -0.08496355042908499 0
          0.1393145478435295 0.48019939271010426 0 0.2291611503070793 -0.4443930323372951 0
          0.1972883667573325 -0.45943149689831264 0 0.4956508227485985 0.06580472557983501 0
          -0.3151491632453637 -0.3881765125632244 0 0.0034236795189357626 -0.49998827828115294 0
          -0.4999506124016427 0.007027457521922952 0 -0.49539052992401894 -0.0677364219722279 0
          -0.4266089862353527 0.26077724759503973 0 0.3024449419120151 -0.3981545643488692 0
          0.49346539127515787 0.08057237500319428 0 -0.12853358787026736 -0.4831967681899334 0
          0.4659307952898955 -0.18140698443148623 0 -0.21515784358642775 0.45133923200098425 0
          0.2275608371274677 -0.44521462847243254 0 -0.35057765032106863 -0.35650429323552124 0
          -0.4768564467018292 0.15035933372726004 0 0.4528729909342309 -0.21191048601304285 0
          -0.3526017469951064 0.35450247956255393 0 -0.3725453856971729 0.3334815371137429 0
          0.4756410606784427 0.15416089451182494 0 0.2807372467304642 0.4137470221019101 0
          0.4626191684105362 0.1896931865385363 0 -0.4135901605646959 0.28096828839580645 0
          -0.3705725238326515 0.3356724662231011 0 -0.48702057444043617 0.1131855117570599 0
          0.44384907318819733 0.23021294540051015 0 0.4212986520881384 0.26927206641001167 0
          -0.3810421691383465 -0.3237388845016053 0 -0.0016707148943546184 0.4999972087039504 0
          0.45820986748765247 -0.20010926349609093 0 0.4771507840810915 0.14942265307107744 0
          -0.25750008855340506 0.42859503542970323 0 0.4473074867045932 0.22341891669690855 0
          0.39860815509471675 -0.30184687954654466 0 -0.31007345293008615 -0.3922428505250461 0
          0.10237932737766084 0.4894062456954322 0 -0.49126935766012464 0.09302912567690046 0
          -0.27570502241211864 0.41711717852029684 0 0.16972375313398808 0.4703124999637083 0
          0.32837448949082004 -0.3770546308582396 0 0.0026139611168858293 0.4999931671605917 0
          0.23881743472561395 0.43927921971233413 0 0.14727968291235083 -0.4778165913833857 0
          <InformationKey name="L2_NORM_RANGE" location="vtkDataArray" length="2">
            <Value index="0">
              0.5
            </Value>
            <Value index="1">
              0.5
            </Value>
          </InformationKey>
        </DataArray>
        <DataArray type="Float64" Name="radius" format="ascii" RangeMin="1" RangeMax="1">
          1 1 1 1 1 1
          1 1 1 1 1 1
          1 1 1 1 1 1
          1 1 1 1 1 1
          1 1 1 1 1 1
          1 1 1 1 1 1
          1 1 1 1 1 1
          1 1 1 1 1 1
          1 1 1 1 1 1
          1 1 1 1 1 1
          1 1 1 1 1 1
          1 1 1 1 1 1
          1 1 1 1 1 1
          1 1 1 1 1 1
          1 1 1 1 1 1
          1 1 1 1 1 1
          1 1 1 1 1 1
          1 1 1 1 1 1
          1 1 1 1 1 1
          1 1 1 1 1 1
          1 1 1 1 1 1
          1 1 1 1 1 1
          1 1 1 1 1 1
          1 1 1 1 1 1
          1 1 1 1 1 1
          1 1 1 1
        </DataArray>
      </PointData>
      <CellData>
      </CellData>
      <Points>
        <DataArray type="Float32" Name="Points" NumberOfComponents="3" format="ascii" RangeMin="2.800928927439448" RangeMax="67.75043729659244">
          -37.51243209838867 34.11561965942383 0 46.78270721435547 -28.407150268554688 0
          -19.77931785583496 4.59122896194458 0 -31.402055740356445 49.57344436645508 0
          48.977237701416016 46.8118782043457 0 22.405933380126953 48.42976379394531 0
          -39.774269104003906 29.40229606628418 0 -19.478286743164062 -49.88301086425781 0
          -39.087913513183594 13.595782279968262 0 37.6881217956543 0.6720860600471497 0
          29.574689865112305 -13.517047882080078 0 -29.068023681640625 17.950708389282227 0
          -10.849982261657715 23.721403121948242 0 -3.322819232940674 -7.584506988525391 0
          -32.45796203613281 -19.43631362915039 0 28.616531372070312 -18.106266021728516 0
          37.050987243652344 -34.79730987548828 0 48.915164947509766 31.150480270385742 0
          -37.704254150390625 26.422866821289062 0 -1.4353898763656616 15.42386245727539 0
          -38.360679626464844 -27.796842575073242 0 -44.84872055053711 -46.047481536865234 0
          -9.207987785339355 -4.321310520172119 0 -1.6303528547286987 29.608783721923828 0
          41.56145095825195 30.329896926879883 0 20.735960006713867 -50.02303695678711 0
          21.10001564025879 14.563068389892578 0 -4.44584846496582 27.07798957824707 0
          7.634524822235107 37.673221588134766 0 30.808164596557617 -47.707679748535156 0
          32.89970016479492 32.99210739135742 0 43.71977996826172 -8.705768585205078 0
          -7.784060001373291 8.014877319335938 0 -34.02324295043945 26.679807662963867 0
          -26.23974609375 31.550460815429688 0 49.44035720825195 -17.91982650756836 0
          -20.48643684387207 -48.89432907104492 0 -29.16889762878418 40.6889762878418 0
          34.096805572509766 45.86766815185547 0 27.664186477661133 49.33473205566406 0
          -43.041561126708984 29.190032958984375 0 9.635136604309082 23.502582550048828 0
          19.37879753112793 18.48818588256836 0 -10.536258697509766 6.234824180603027 0
          -29.811342239379883 2.0623507499694824 0 -9.779939651489258 -14.727621078491211 0
          8.824077606201172 -13.685617446899414 0 46.551971435546875 -35.17902374267578 0
          -10.985209465026855 -11.796577453613281 0 22.186452865600586 -11.834216117858887 0
          42.371337890625 -6.487218856811523 0 35.20663833618164 12.223457336425781 0
          -36.88969039916992 -2.360304594039917 0 -15.410395622253418 4.089607238769531 0
          21.892118453979492 48.47186279296875 0 21.613365173339844 41.80112075805664 0
          1.1920228004455566 5.975427627563477 0 0.8999069929122925 -3.8108551502227783 0
          4.59091854095459 -5.901596546173096 0 34.981510162353516 10.648550033569336 0
          1.241842269897461 47.80713653564453 0 -47.006412506103516 47.82414627075195 0
          -14.004217147827148 17.23961639404297 0 -15.134303092956543 35.560176849365234 0
          -45.29941940307617 15.354960441589355 0 24.425865173339844 -36.08613967895508 0
          47.95823287963867 -40.55829620361328 0 -21.7502384185791 30.78407096862793 0
          -42.40620040893555 13.54036808013916 0 -48.79096221923828 18.655126571655273 0
          3.244020700454712 -5.8305768966674805 0 -29.87458610534668 -35.24494171142578 0
          -10.876891136169434 26.342124938964844 0 -46.6740837097168 -24.678136825561523 0
          1.0512911081314087 32.91094207763672 0 47.52642059326172 32.499114990234375 0
          -19.452560424804688 -43.96721649169922 0 -24.534025192260742 3.794430732727051 0
          39.417091369628906 -14.715920448303223 0 -47.00849533081055 -33.607200622558594 0
          38.30364227294922 -29.66122055053711 0 -23.328920364379883 -0.30907344818115234 0
          -27.597070693969727 -0.4814666509628296 0 44.2029914855957 15.602569580078125 0
          26.586557388305664 -6.40673303604126 0 5.102042198181152 -44.31144332885742 0
          -16.93498420715332 -8.815539360046387 0 40.55220031738281 31.340253829956055 0
          -24.42211151123047 -36.353736877441406 0 -1.5849906206130981 -11.735725402832031 0
          21.87457847595215 -21.074399948120117 0 11.679195404052734 31.607959747314453 0
          -18.200149536132812 -11.971556663513184 0 -15.166899681091309 31.278423309326172 0
          18.079809188842773 -12.313753128051758 0 -4.75574254989624 -19.06230926513672 0
          40.65837478637695 -1.4353830814361572 0 25.994327545166016 -38.17508316040039 0
          -9.808918952941895 37.38395309448242 0 -12.825752258300781 41.977874755859375 0
          4.957601547241211 -35.90789031982422 0 -29.479084014892578 44.80504608154297 0
          49.53778076171875 -26.80959129333496 0 -47.62882995605469 -11.511519432067871 0
          28.531017303466797 -3.25016188621521 0 4.194341659545898 -48.60245132446289 0
          40.1047477722168 -29.73708724975586 0 38.92280197143555 -5.904842376708984 0
          -34.6483039855957 -25.725101470947266 0 29.096179962158203 -2.857076406478882 0
          -40.679588317871094 15.54149055480957 0 13.864794731140137 8.361711502075195 0
          21.461833953857422 -14.91462230682373 0 18.20145606994629 20.3432559967041 0
          -34.02956008911133 -36.552860260009766 0 -5.319943904876709 -46.30579376220703 0
          30.561073303222656 -33.11201858520508 0 32.65582275390625 -16.826982498168945 0
          16.295669555664062 -8.226771354675293 0 27.507986068725586 -38.31406021118164 0