<?xml version="1.0"?>
<VTKFile type="PolyData" version="0.1" byte_order="LittleEndian" header_type="UInt32" compressor="vtkZLibDataCompressor">
  <PolyData>
    <Piece NumberOfPoints="154" NumberOfVerts="0" NumberOfLines="0" NumberOfStrips="0" NumberOfPolys="0">
      <PointData>
        <DataArray type="Int32" Name="id" format="ascii" RangeMin="0" RangeMax="153">
          0 1 2 3 4 5
          6 7 8 9 10 11
          12 13 14 15 16 17
          18 19 20 21 22 23
          24 25 26 27 28 29
          30 31 32 33 34 35
          36 37 38 39 40 41
          42 43 44 45 46 47
          48 49 50 51 52 53
          54 55 56 57 58 59
          60 61 62 63 64 65
          66 67 68 69 70 71
          72 73 74 75 76 77
          78 79 80 81 82 83
          84 85 86 87 88 89
          90 91 92 93 94 95
          96 97 98 99 100 101
          102 103 104 105 106 107
          108 109 110 111 112 113
          114 115 116 117 118 119
          120 121 122 123 124 125
          126 127 128 129 130 131
          132 133 134 135 136 137
          138 139 140 141 142 143
          144 145 146 147 148 149
          150 151 152 153
        </DataArray>
        <DataArray type="Float64" Name="director" NumberOfComponents="3" format="ascii" RangeMin="0.9999999999999999" RangeMax="1">
          -0.9982663670260454 -0.058857968573683306 0 0.6218849589188865 -0.7831086117968917 0
          -0.5683923126894117 -0.8227576671630487 0 0.41858224470544847 0.9081788945011594 0
          -0.8331360089877582 0.5530681608336807 0 -0.13363805201408974 0.9910302069331083 0
          0.8166103086775066 0.5771894002505826 0 0.7358481866762713 0.6771465470378206 0
          0.9919931072550194 0.12629202333691347 0 -0.516457873253407 -0.8563125978020922 0
          -0.6092937847944699 0.7929445654084718 0 -0.9768784743853539 0.213795337373254 0
          -0.7105732765181665 -0.7036232079019548 0 -0.06815766508188914 0.9976745625155454 0
          0.8262827657164692 0.5632555291161753 0 0.8944483607056268 -0.44717125358302817 0
          -0.732774422780837 -0.6804716344699543 0 -0.8664289912787114 0.499300313510571 0
          0.9349857792277743 -0.3546852021748746 0 -0.9460357953665214 -0.32406214509756187 0
          0.4229722582840977 0.9061426315553477 0 0.5793900863752026 -0.8150503836022257 0
          -0.7170225100544946 -0.6970500126068088 0 0.5266321432214125 0.8500932806027947 0
          -0.5429944274144899 -0.8397362989634367 0 -0.7784480922293242 0.6277089832912427 0
          0.8502771534775058 -0.5263352185387087 0 0.789691538053614 0.6135040951179686 0
          -0.7658044728652843 -0.6430734867334557 0 -0.1608199937390173 -0.9869837534700266 0
          0.5730448769984454 0.8195239892436563 0 -0.9959699809561756 -0.08968721778578687 0
          -0.9848900788224779 -0.1731806358605178 0 0.11377006757854641 0.9935071070320398 0
          0.9638876326148699 0.26630927826889866 0 0.43536436793630573 0.9002543346918253 0
          0.8057120599417201 0.592307417195218 0 -0.8330616310076696 -0.5531801866867986 0
          -0.6729420016715285 -0.73969524967132 0 0.9991001655613498 -0.04241295999200484 0
          0.11927000324521196 0.9928618566174687 0 0.8915283441861838 -0.4529649120104574 0
          0.024082085405736156 -0.9997099845267681 0 -0.8502819875559696 -0.5263274091645521 0
          0.8710561520632748 0.49118344837007805 0 -0.4534558396090516 0.8912787451322117 0
          0.06846412261500998 -0.9976535791117861 0 -0.9997398910890841 -0.022806800853827254 0
          -0.8523550290617767 -0.5229635784957666 0 -0.47622502187086346 0.8793234493314139 0
          0.8885994365481044 -0.4586840321685413 0 0.9443590353127079 0.32891642163815976 0
          0.9999933198360494 0.003655172126795827 0 -0.4459382205138402 0.8950637426937534 0
          -0.6175143445640532 0.7865596190102997 0 -0.9516876984542226 0.3070676222119561 0
          -0.9171338690763206 -0.39857930979053396 0 -0.7086940234028771 0.7055159680638293 0
          -0.18434244923186877 -0.9828620764945588 0 0.7792832041318579 -0.6266719139693313 0
          -0.9999586787398086 0.00909069925452778 0 -0.35216806558068053 -0.9359367786261855 0
          -0.8253707011866352 -0.564591184506703 0 0.9945914113417611 0.10386493385740786 0
          0.400440593191615 -0.9163227222569281 0 -0.9999182351313294 0.012787613219340372 0
          0.8791599034596442 -0.4765268766279916 0 -0.8841291959212341 -0.46724251189256333 0
          -0.6390854469697259 0.7691357432023983 0 0.9591514392980375 -0.2828931184961967 0
          0.6919192040415018 0.7219749407552694 0 -0.25794861634804306 0.9661586367280117 0
          0.23340425693500277 0.9723797883772674 0 -0.3582212051394962 0.9336367431653528 0
          0.030504981260844253 -0.9995346147674304 0 -0.9873189336067496 0.1587492467435065 0
          -0.8776834126433365 0.479240886372132 0 -0.17711490944301214 -0.9841901792097875 0
          -0.5926581579389957 0.8054541003858361 0 -0.033767205829680916 -0.9994297252986104 0
          0.2814091012644045 0.9595878895263112 0 0.9515756413076184 -0.3074147017792006 0
          -0.8598015624606814 -0.5106283121705758 0 -0.9656614244506666 -0.259803797754978 0
          -0.7696415058475441 0.6384762740123745 0 -0.2939796593393177 0.9558116759564819 0
          -0.9265607904426694 0.37614505395426334 0 -0.5262315318064371 -0.8503413284867735 0
          0.9011232107602479 0.4335630969410817 0 0.5361390956728818 0.8441296524178407 0
          0.9207566532673268 -0.390137393060383 0 0.05449852037066077 -0.9985138513197545 0
          -0.9998020091261643 -0.019898305135994013 0 0.19565302195239342 -0.9806731846037681 0
          -0.07719469079277202 0.9970160378416228 0 0.9945090353465376 0.10465074588410397 0
          -0.6461002605434605 0.7632525488497712 0 0.9213045798185852 -0.3888417045602236 0
          -0.8685451535217391 -0.495610044585356 0 0.6640484256698577 -0.7476895668426726 0
          -0.6430677557880791 0.765809285309132 0 0.668560191176418 -0.743658033489958 0
          -0.9355693437403668 -0.35314303483605514 0 0.9927670441924461 0.12005663649042383 0
          -0.1497046780718945 0.9887307567600951 0 -0.6297104336973459 0.776829949018896 0
          0.8792156505146461 -0.47642401271357815 0 0.8633832597612379 -0.5045486564882111 0
          -0.8918348516350115 -0.4523611360507852 0 -0.9996271854670319 -0.02730366413616132 0
          0.4859312412819917 0.8739970416117796 0 0.6372440309106688 -0.7706620822829696 0
          0.33798808454659773 -0.9411503889945123 0 0.9999893531577226 0.004614495768716122 0
          -0.48822428285427333 -0.8727181960011092 0 0.0859201824424133 -0.9963020236098401 0
          -0.9973998865611673 -0.0720657081264771 0 -0.9382872911306636 -0.3458568479915951 0
          -0.78660859719683 0.6174519534474204 0 0.4990922263348907 -0.866548873181474 0
          0.9880621732296002 0.15405564524807133 0 -0.5556402228583138 -0.8314228423263119 0
          0.963870447833459 -0.2663714695558203 0 -0.3327681596743699 0.9430086701122812 0
          0.44607086890352565 -0.8949976424078745 0 -0.7484575808142341 -0.6631826669340086 0
          -0.9166905644488973 0.3995978091160687 0 0.7301816239063017 -0.6832530981338878 0
          -0.6433303961118151 0.7655886633425387 0 -0.7063727232202724 0.7078400779062856 0
          0.975323612869782 0.22078009461596795 0 0.6708041157762179 0.7416345719137467 0
          0.8849096355759849 0.46576274739912127 0 -0.8442778710340431 0.5359056600580215 0
          -0.7718781468166928 0.6357704982671247 0 -0.9894542107017178 0.14484600417215768 0
          0.8508238290362842 0.525451055707414 0 0.9241087203961975 0.38212965455157033 0
          -0.8862228046828013 -0.4632592583642007 0 0.08069766297864965 0.9967386253124659 0
          0.9059155990056099 -0.423458294851225 0 0.9277484389839656 0.3732061547761706 0
          -0.6173274141916869 0.7867063389139594 0 0.9422546904867805 0.33489714578607804 0
          0.835854290035279 -0.5489513692756579 0 -0.5518961358725575 -0.8339128582825304 0
          0.22598556193543967 0.9741306512972084 0 -0.969356169991576 0.2456595524282797 0
          -0.3894254959737341 0.9210579694490523 0 0.5291969420780753 0.8484990256300913 0
          0.28276275774795895 -0.9591898784030037 0 -0.10871183239833114 0.9940733058968021 0
          0.6674547823832508 0.744650329667373 0 0.31780012771243704 -0.9481577288752957 0
          <InformationKey name="L2_NORM_RANGE" location="vtkDataArray" length="2">
            <Value index="0">
              1
            </Value>
            <Value index="1">
              1
            </Value>
          </InformationKey>
        </DataArray>
        <DataArray type="Float64" Name="velocity" NumberOfComponents="3" format="ascii" RangeMin="2.98391528750295" RangeMax="65.61664053985334">
          20.472372037415383 -30.489259884928693 0 -7.778161120144524 43.605506408926914 0
          -35.778279556590725 14.318100471258902 0 -2.7267860528004704 -6.306708942777526 0
          -25.56803597993237 0.5919415230237348 0 40.69440930810454 -42.34960265147567 0
          21.390392053252754 11.720491675449018 0 -31.091580543867785 -10.301819378431787 0
          -22.233594277397 35.80993014386058 0 40.8936574712134 11.727908496204755 0
          -31.918129728714472 1.502371966558826 0 32.46317064138093 -14.067556233339687 0
          31.61170207931397 -20.66117562390716 0 -32.788218903188394 -0.7210412736466054 0
          -30.467523066969363 36.43074923190564 0 -29.58028331655805 11.627227611362315 0
          37.80505508071815 -10.753091333426255 0 44.65772551607054 -33.330173144632525 0
          47.18774005931614 6.396489460552942 0 9.836891189866492 -36.87781496106794 0
          6.677739541459459 5.438027088135769 0 -18.951003944933063 -37.93510690561732 0
          23.77908201111339 -25.727634747998636 0 32.285914726045576 -31.45240287607238 0
          -18.732306147503376 38.172541468590836 0 17.42129460906331 23.929755673071398 0
          -43.74567596165927 -36.843843838172035 0 -41.00470913383489 -49.1685554695042 0
          -4.3489588147394045 13.430332075080756 0 2.9762992276979077 -0.21305715242312573 0
          -16.420210149222868 -24.717665071237764 0 -26.63245586108499 -32.68369682188443 0
          9.59810303037343 22.68931438280859 0 37.757309281314306 20.71597266757422 0
          -26.523439665569285 -2.200425364398683 0 -48.17882370239545 24.733119867345934 0
          15.472358145094617 -42.19330576503555 0 -2.7230899171649696 49.647506705142575 0
          3.209752212846098 39.943600631846664 0 27.290092728339346 -29.624030405099575 0
          40.710862227344634 -12.518743865476708 0 34.808888796398136 -17.330075407408792 0
          -17.326333983387784 15.921061981020685 0 8.676498234140595 -45.101679767889145 0
          26.99656655139428 -0.8247828969564566 0 -1.181598492863479 -7.087342925864128 0
          -10.527228461045638 27.645380145270124 0 47.47543864880045 24.850515939083976 0
          13.45020038299144 -42.781974126121774 0 13.33632968921519 2.89206325620421 0
          -20.383234879262602 -17.467213088655853 0 13.111992425538233 49.45054225750374 0
          1.6047826830209004 22.445391370448775 0 -25.442525168919026 -16.766088433362327 0
          24.860911549332883 18.296648546241826 0 18.127137052491975 -42.11576276898946 0
          -4.106371249565804 19.81468592825003 0 -43.2115168522386 -43.085994704941484 0
          2.7042817825837204 -23.795120132132308 0 -1.6624837545658195 -36.91945356486498 0
          -40.55592314206473 -37.96183180819797 0 46.98372058379586 25.62816454897687 0
          -23.182362140209666 22.4905983535036 0 -8.42374893276238 -2.5281598168396826 0
          -44.45585735866184 11.374414308737222 0 -0.9380815156004232 40.44748670579848 0
          43.5214270198436 41.82766196839604 0 -19.617472876146607 29.010177679462174 0
          -27.377259211045168 -5.104813753149479 0 1.0108912986547693 -26.93680745999526 0
          21.18807799653547 48.4452609761332 0 15.521324819791857 -22.733301715898534 0
          -3.0984436752635744 -49.699879474370995 0 -5.357606698271908 47.09441502974741 0
          -19.533649987483585 -28.48909553641595 0 -25.241492794096537 30.645102659141713 0
          -1.3628901407151872 -9.249808436218693 0 -28.437070584076316 4.0252086974848424 0
          22.302423751473526 -21.630608392707323 0 4.286209731170565 25.592468486596516 0
          -16.80227135673981 30.176297340482108 0 35.70724318896097 -48.51082997011254 0
          38.494266527440914 9.308694076898924 0 -41.37827709570729 42.48759424258512 0
          41.371957205314274 48.07567751376408 0 40.00221093710812 44.971458396046486 0
          43.45219546574209 -49.16757290067578 0 27.77940311086799 -47.40411222574361 0
          8.787704962513757 14.978077069606684 0 -17.176354508003442 -38.89206379839693 0
          -37.572734230027905 47.39150589914381 0 3.322947059262674 16.230028184641725 0
          20.82576325094061 -43.12614201683975 0 -29.404442159877867 -6.6570323329381935 0
          -48.88074135310182 -43.07374742736768 0 -15.693819004659524 -18.776991949103287 0
          49.2742614956165 -23.093566379026992 0 35.70662412955289 -14.438908494432013 0
          24.676827977366614 34.48562696853686 0 -28.28613766609157 46.49521791482232 0
          21.219265309149932 48.266786794162286 0 25.989900495501132 -30.673962513745963 0
          -14.741048879365302 -30.369965831724773 0 33.206792723445574 45.25947670903301 0
          26.73700517552618 36.1968809297727 0 -4.433626259916984 -16.731616061562868 0
          33.82599634129042 5.430878965379037 0 -37.91344272052366 -28.781627030961573 0
          -0.8760744559602713 -9.034520229977083 0 25.951148963832622 -14.29357740625877 0
          27.17860558051683 48.15404052238152 0 34.61617221348607 33.462162550860555 0
          -13.28055184508198 -44.93740558320786 0 47.55616001461492 34.25892934866374 0
          36.946038841117556 -42.45015674570037 0 -46.76239316488481 11.393180618063838 0
          23.568028568935404 11.552780427737098 0 16.263007945057282 45.12644264060411 0
          -23.411248530157515 41.93857265065735 0 -38.160345232049345 -18.69342940760771 0
          37.21153998486223 -26.635630373860984 0 30.80584946405935 5.653176675427417 0
          44.35923105765637 0.370346282237378 0 16.64168251311186 -34.7034267378138 0
          47.322877480901255 13.376690736606477 0 -32.1350217035443 -42.58571958176201 0
          -0.5025219679409361 28.59799073613067 0 -3.5320261053794297 38.30316610148137 0
          14.736889949280638 40.32409694969634 0 -49.402638529229115 19.356180838194604 0
          8.508964450503598 -39.46387075781778 0 49.03198966734128 -27.000797471280585 0
          -16.70921662991016 18.938285128010065 0 46.14207459237997 -27.3400906744995 0
          42.424140585792586 37.62461911345025 0 -6.825547086494495 -2.911259141055119 0
          6.210247997996007 33.76154121673389 0 -35.16911208657487 13.927818279591207 0
          49.5593687100304 13.93941034113417 0 -6.0481675260535965 -47.161165000275155 0
          -41.68490984500472 3.0367185203014984 0 28.200151364646487 23.664522522360798 0
          -30.983903256438072 -23.817273645282434 0 -4.775523168997552 -3.9973115200368454 0
          17.36371431475763 -32.304692769073746 0 -31.21691646176371 -40.35131875297581 0
          -17.61253928181918 -32.96735050248542 0 -47.52659271635095 33.064298464373394 0
          -25.51716157275273 -35.79649925661745 0 -34.4558032257712 -19.698927528483058 0
          -46.64276824331557 -9.071061809886274 0 28.312364537561464 -5.662808823633235 0
          -48.25117889494449 -21.421563451189467 0 45.139670111270334 -32.86849758057289 0
          <InformationKey name="L2_NORM_RANGE" location="vtkDataArray" length="2">
            <Value index="0">
              2.9839152875
            </Value>
            <Value index="1">
              65.61664054
            </Value>
          </InformationKey>
        </DataArray>
        <DataArray type="Float64" Name="force" NumberOfComponents="3" format="ascii" RangeMin="0.49999999999999994" RangeMax="0.5">
          -0.4991331835130227 -0.029428984286841653 0 0.31094247945944326 -0.39155430589844586 0
          -0.28419615634470585 -0.41137883358152433 0 0.20929112235272423 0.4540894472505797 0
          -0.4165680044938791 0.27653408041684036 0 -0.06681902600704487 0.49551510346655414 0
          0.4083051543387533 0.2885947001252913 0 0.36792409333813564 0.3385732735189103 0
          0.4959965536275097 0.06314601166845674 0 -0.2582289366267035 -0.4281562989010461 0
          -0.30464689239723497 0.3964722827042359 0 -0.48843923719267696 0.106897668686627 0
          -0.35528663825908324 -0.3518116039509774 0 -0.03407883254094457 0.4988372812577727 0
          0.4131413828582346 0.28162776455808763 0 0.4472241803528134 -0.22358562679151409 0
          -0.3663872113904185 -0.34023581723497714 0 -0.4332144956393557 0.2496501567552855 0
          0.46749288961388713 -0.1773426010874373 0 -0.4730178976832607 -0.16203107254878094 0
          0.21148612914204884 0.45307131577767384 0 0.2896950431876013 -0.40752519180111285 0
          -0.3585112550272473 -0.3485250063034044 0 0.26331607161070625 0.4250466403013973 0
          -0.27149721370724494 -0.41986814948171836 0 -0.3892240461146621 0.31385449164562135 0
          0.4251385767387529 -0.26316760926935434 0 0.394845769026807 0.3067520475589843 0
          -0.38290223643264215 -0.32153674336672783 0 -0.08040999686950864 -0.4934918767350133 0
          0.2865224384992227 0.40976199462182816 0 -0.4979849904780878 -0.04484360889289343 0
          -0.49244503941123896 -0.0865903179302589 0 0.056885033789273204 0.4967535535160199 0
          0.48194381630743494 0.13315463913444933 0 0.21768218396815286 0.4501271673459126 0
          0.40285602997086006 0.296153708597609 0 -0.4165308155038348 -0.2765900933433993 0
          -0.33647100083576426 -0.36984762483566 0 0.4995500827806749 -0.02120647999600242 0
          0.05963500162260598 0.49643092830873436 0 0.4457641720930919 -0.2264824560052287 0
          0.012041042702868078 -0.49985499226338403 0 -0.4251409937779848 -0.26316370458227606 0
          0.4355280760316374 0.24559172418503902 0 -0.2267279198045258 0.44563937256610586 0
          0.03423206130750499 -0.49882678955589305 0 -0.49986994554454206 -0.011403400426913627 0
          -0.42617751453088837 -0.2614817892478833 0 -0.23811251093543173 0.43966172466570697 0
          0.4442997182740522 -0.22934201608427066 0 0.47217951765635396 0.16445821081907988 0
          0.4999966599180247 0.0018275860633979134 0 -0.2229691102569201 0.4475318713468767 0
          -0.3087571722820266 0.39327980950514985 0 -0.4758438492271113 0.15353381110597805 0
          -0.4585669345381603 -0.19928965489526698 0 -0.35434701170143856 0.35275798403191466 0
          -0.09217122461593438 -0.4914310382472794 0 0.38964160206592896 -0.31333595698466565 0
          -0.4999793393699043 0.00454534962726389 0 -0.17608403279034027 -0.46796838931309276 0
          -0.4126853505933176 -0.2822955922533515 0 0.49729570567088055 0.05193246692870393 0
          0.2002202965958075 -0.45816136112846406 0 -0.4999591175656647 0.006393806609670186 0
          0.4395799517298221 -0.2382634383139958 0 -0.44206459796061703 -0.23362125594628166 0
          -0.31954272348486296 0.38456787160119915 0 0.47957571964901874 -0.14144655924809835 0
          0.3459596020207509 0.3609874703776347 0 -0.12897430817402153 0.48307931836400586 0
          0.11670212846750139 0.4861898941886337 0 -0.1791106025697481 0.4668183715826764 0
          0.015252490630422126 -0.4997673073837152 0 -0.4936594668033748 0.07937462337175324 0
          -0.43884170632166825 0.239620443186066 0 -0.08855745472150607 -0.49209508960489373 0
          -0.29632907896949784 0.40272705019291805 0 -0.016883602914840458 -0.4997148626493052 0
          0.14070455063220225 0.4797939447631556 0 0.4757878206538092 -0.1537073508896003 0
          -0.4299007812303407 -0.2553141560852879 0 -0.4828307122253333 -0.129901898877489 0
          -0.38482075292377205 0.31923813700618725 0 -0.14698982966965884 0.47790583797824093 0
          -0.4632803952213347 0.18807252697713167 0 -0.26311576590321856 -0.42517066424338673 0
          0.45056160538012396 0.21678154847054085 0 0.2680695478364409 0.42206482620892033 0
          0.4603783266336634 -0.1950686965301915 0 0.027249260185330384 -0.4992569256598772 0
          -0.4999010045630822 -0.009949152567997006 0 0.09782651097619671 -0.49033659230188403 0
          -0.03859734539638601 0.4985080189208114 0 0.4972545176732688 0.05232537294205199 0
          -0.32305013027173024 0.3816262744248856 0 0.4606522899092926 -0.1944208522801118 0
          -0.43427257676086956 -0.247805022292678 0 0.33202421283492883 -0.3738447834213363 0
          -0.32153387789403953 0.382904642654566 0 0.334280095588209 -0.371829016744979 0
          -0.4677846718701834 -0.17657151741802757 0 0.49638352209622305 0.06002831824521192 0
          -0.07485233903594725 0.49436537838004757 0 -0.31485521684867296 0.388414974509448 0
          0.43960782525732306 -0.23821200635678907 0 0.43169162988061893 -0.25227432824410556 0
          -0.44591742581750576 -0.2261805680253926 0 -0.49981359273351594 -0.01365183206808066 0
          0.24296562064099586 0.4369985208058898 0 0.3186220154553344 -0.3853310411414848 0
          0.16899404227329887 -0.47057519449725616 0 0.4999946765788613 0.002307247884358061 0
          -0.24411214142713666 -0.4363590980005546 0 0.04296009122120665 -0.49815101180492005 0
          -0.49869994328058365 -0.03603285406323855 0 -0.4691436455653318 -0.17292842399579755 0
          -0.393304298598415 0.3087259767237102 0 0.24954611316744535 -0.433274436590737 0
          0.4940310866148001 0.07702782262403567 0 -0.2778201114291569 -0.41571142116315596 0
          0.4819352239167295 -0.13318573477791015 0 -0.16638407983718495 0.4715043350561406 0
          0.22303543445176283 -0.44749882120393725 0 -0.37422879040711704 -0.3315913334670043 0
          -0.45834528222444865 0.19979890455803434 0 0.36509081195315085 -0.3416265490669439 0
          -0.32166519805590754 0.38279433167126936 0 -0.3531863616101362 0.3539200389531428 0
          0.487661806434891 0.11039004730798398 0 0.33540205788810895 0.37081728595687335 0
          0.44245481778799245 0.23288137369956063 0 -0.42213893551702153 0.26795283002901077 0
          -0.3859390734083464 0.31788524913356236 0 -0.4947271053508589 0.07242300208607884 0
          0.4254119145181421 0.262725527853707 0 0.46205436019809876 0.19106482727578517 0
          -0.4431114023414007 -0.23162962918210034 0 0.040348831489324825 0.49836931265623297 0
          0.45295779950280496 -0.2117291474256125 0 0.4638742194919828 0.1866030773880853 0
          -0.30866370709584345 0.3933531694569797 0 0.4711273452433902 0.16744857289303902 0
          0.4179271450176395 -0.27447568463782895 0 -0.27594806793627874 -0.4169564291412652 0
          0.11299278096771984 0.4870653256486042 0 -0.484678084995788 0.12282977621413985 0
          -0.19471274798686705 0.46052898472452614 0 0.26459847103903766 0.42424951281504564 0
          0.14138137887397947 -0.47959493920150187 0 -0.05435591619916557 0.49703665294840105 0
          0.3337273911916254 0.3723251648336865 0 0.15890006385621852 -0.47407886443764785 0
          <InformationKey name="L2_NORM_RANGE" location="vtkDataArray" length="2">
            <Value index="0">
              0.5
            </Value>
            <Value index="1">
              0.5
            </Value>
          </InformationKey>
        </DataArray>
        <DataArray type="Float64" Name="radius" format="ascii" RangeMin="1" RangeMax="1">
          1 1 1 1 1 1
          1 1 1 1 1 1
          1 1 1 1 1 1
          1 1 1 1 1 1
          1 1 1 1 1 1
          1 1 1 1 1 1
          1 1 1 1 1 1
          1 1 1 1 1 1
          1 1 1 1 1 1
          1 1 1 1 1 1
          1 1 1 1 1 1
          1 1 1 1 1 1
          1 1 1 1 1 1
          1 1 1 1 1 1
          1 1 1 1 1 1
          1 1 1 1 1 1
          1 1 1 1 1 1
          1 1 1 1 1 1
          1 1 1 1 1 1
          1 1 1 1 1 1
          1 1 1 1 1 1
          1 1 1 1 1 1
          1 1 1 1 1 1
          1 1 1 1 1 1
          1 1 1 1 1 1
          1 1 1 1
        </DataArray>
      </PointData>
      <CellData>
      </CellData>
      <Points>
        <DataArray type="Float32" Name="Points" NumberOfComponents="3" format="ascii" RangeMin="2.7897155887201186" RangeMax="67.58422679238726">
          -37.51176071166992 34.072227478027344 0 46.66788101196289 -28.237092971801758 0
          -19.793476104736328 4.556601047515869 0 -31.407527923583984 49.65245819091797 0
          48.888832092285156 46.663795471191406 0 22.179649353027344 48.44432067871094 0
          -40.09213638305664 29.415996551513672 0 -19.30967903137207 -49.984130859375 0
          -39.19881057739258 13.650230407714844 0 37.65292739868164 0.5788295865058899 0
          29.295169830322266 -13.666271209716797 0 -29.037654876708984 17.89026641845703 0
          -10.608438491821289 23.599735260009766 0 -3.2910966873168945 -7.390248775482178 0
          -32.46343231201172 -19.517091751098633 0 28.611928939819336 -18.347545623779297 0
          36.78752136230469 -34.86605453491211 0 48.8248291015625 31.153169631958008 0
          -37.79887771606445 26.075294494628906 0 -1.410743236541748 15.280491828918457 0
          -38.358760833740234 -27.866302490234375 0 -45.10826873779297 -45.92947769165039 0
          -9.164569854736328 -4.468257427215576 0 -1.6441240310668945 29.403932571411133 0
          41.576236724853516 30.282556533813477 0 20.895837783813477 -50.246910095214844 0
          20.805530548095703 14.559741973876953 0 -4.443526744842529 27.21562385559082 0
          7.401822566986084 37.60808563232422 0 30.705820083618164 -47.728302001953125 0
          32.78845977783203 32.567867279052734 0 43.71250915527344 -8.78290843963623 0
          -7.91849946975708 7.9116597175598145 0 -34.104637145996094 26.74149513244629 0
          -26.64927101135254 31.365400314331055 0 49.49981689453125 -17.53835105895996 0
          -20.61990737915039 -48.701168060302734 0 -29.383949279785156 40.54669189453125 0
          34.05849075317383 45.60965347290039 0 27.524635314941406 49.50469970703125 0
          -42.75094985961914 29.420398712158203 0 9.318950653076172 23.570201873779297 0
          19.50050926208496 18.616971969604492 0 -10.720720291137695 6.114667892456055 0
          -29.813213348388672 2.4293479919433594 0 -9.82950496673584 -14.758872985839844 0
          8.713672637939453 -13.558717727661133 0 46.56432342529297 -35.26587677001953 0
          -10.940145492553711 -11.753074645996094 0 22.180675506591797 -11.704706192016602 0
          42.0650634765625 -6.332247734069824 0 35.082515716552734 12.327319145202637 0
          -36.89706039428711 -2.516237258911133 0 -15.18814468383789 4.201696395874023 0
          21.923057556152344 48.217220306396484 0 21.45903968811035 41.682369232177734 0
          1.2721463441848755 6.037524223327637 0 0.9246986508369446 -3.8455045223236084 0
          4.729032516479492 -5.969503402709961 0 35.022151947021484 10.580453872680664 0
          1.0839823484420776 47.8830680847168 0 -46.902122497558594 47.715538024902344 0
          -14.10542106628418 17.098270416259766 0 -14.958163261413574 35.73808670043945 0
          -45.37178421020508 15.33115291595459 0 24.105182647705078 -36.153011322021484 0
          48.03242874145508 -40.401615142822266 0 -21.862964630126953 30.777917861938477 0
          -42.36386489868164 13.672598838806152 0 -48.68830871582031 18.841917037963867 0
          3.2180731296539307 -5.9700608253479 0 -30.0914363861084 -34.76464080810547 0
          -11.251501083374023 26.50640106201172 0 -46.919193267822266 -24.819074630737305 0
          1.2145272493362427 32.968780517578125 0 47.25803756713867 32.53950881958008 0
          -19.332048416137695 -44.05863952636719 0 -24.374893188476562 3.556109666824341 0
          39.23741912841797 -15.18268871307373 0 -46.992027282714844 -33.39027786254883 0
          38.457096099853516 -29.57332992553711 0 -23.2977237701416 -0.21091246604919434 0
          -27.5030460357666 -0.6426340937614441 0 44.58610534667969 15.494682312011719 0
          26.630332946777344 -6.517613410949707 0 4.9089674949646 -44.56067657470703 0
          -16.95492172241211 -8.666312217712402 0 40.29740524291992 31.208166122436523 0
          -24.320009231567383 -36.3316650390625 0 -1.6992477178573608 -11.836695671081543 0
          21.943923950195312 -21.116559982299805 0 11.738347053527832 31.63831901550293 0
          -18.464582443237305 -12.097990989685059 0 -15.073248863220215 31.366172790527344 0
          18.148643493652344 -12.083846092224121 0 -4.457188129425049 -18.886606216430664 0
          40.76506042480469 -1.4519944190979004 0 25.93434715270996 -38.11737060546875 0
          -9.654330253601074 37.44340133666992 0 -12.759015083312988 41.98856735229492 0
          4.983819007873535 -35.962669372558594 0 -29.360260009765625 45.21352005004883 0
          49.52813720703125 -26.713512420654297 0 -47.97108459472656 -11.334075927734375 0
          28.36237907409668 -3.2842345237731934 0 4.172413349151611 -48.53766632080078 0
          39.86671829223633 -29.638858795166016 0 39.04606246948242 -5.856334209442139 0
          -34.56551742553711 -26.135862350463867 0 29.081647872924805 -2.6633553504943848 0
          -40.58396530151367 15.55501937866211 0 13.997814178466797 8.203571319580078 0
          21.51567268371582 -15.04603099822998 0 18.228919982910156 20.182743072509766 0
          -33.979759216308594 -36.51890563964844 0 -5.188730716705322 -46.214866638183594 0
          30.52393913269043 -33.01341247558594 0 32.84186553955078 -16.80974769592285 0
          16.093854904174805 -8.282753944396973 0 27.222705841064453 -38.59502029418945 0