<?xml version="1.0"?>
<VTKFile type="PolyData" version="0.1" byte_order="LittleEndian" header_type="UInt32" compressor="vtkZLibDataCompressor">
  <PolyData>
    <Piece NumberOfPoints="154" NumberOfVerts="0" NumberOfLines="0" NumberOfStrips="0" NumberOfPolys="0">
      <PointData>
        <DataArray type="Int32" Name="id" format="ascii" RangeMin="0" RangeMax="153">
          0 1 2 3 4 5
          6 7 8 9 10 11
          12 13 14 15 16 17
          18 19 20 21 22 23
          24 25 26 27 28 29
          30 31 32 33 34 35
          36 37 38 39 40 41
          42 43 44 45 46 47
          48 49 50 51 52 53
          54 55 56 57 58 59
          60 61 62 63 64 65
          66 67 68 69 70 71
          72 73 74 75 76 77
          78 79 80 81 82 83
          84 85 86 87 88 89
          90 91 92 93 94 95
          96 97 98 99 100 101
          102 103 104 105 106 107
          108 109 110 111 112 113
          114 115 116 117 118 119
          120 121 122 123 124 125
          126 127 128 129 130 131
          132 133 134 135 136 137
          138 139 140 141 142 143
          144 145 146 147 148 149
          150 151 152 153
        </DataArray>
        <DataArray type="Float64" Name="director" NumberOfComponents="3" format="ascii" RangeMin="0.9999999999999999" RangeMax="1">
          -0.982568136164095 -0.1859028181470535 0 0.6424268635981727 -0.7663470003382377 0
          -0.4581428945091829 -0.8888785565029386 0 0.30426581687744186 0.9525871680218577 0
          -0.9428309990137075 0.33327122182812946 0 -0.31877825513868946 0.9478293222150983 0
          0.6956463446306436 0.7183844118590157 0 0.7198650084376731 0.6941140897770545 0
          0.9961320004876179 -0.087869434984735 0 -0.6198206560914138 -0.7847434958522493 0
          -0.5544982310629244 0.8321849023793256 0 -0.9383950963143587 0.34556423890959187 0
          -0.6789084608991869 -0.734222923722419 0 -0.14865256672899652 0.9888894854354966 0
          0.7722738243972895 0.6352898080016587 0 0.9310433159809031 -0.3649086786680803 0
          -0.5402426121869831 -0.841509310689659 0 -0.6767008834205382 0.7362580487694943 0
          0.9132182626582948 -0.40747074097088953 0 -0.948299164718522 -0.31737784137231984 0
          0.5386776890975566 0.8425119270778997 0 0.5111749302704417 -0.859476695823109 0
          -0.8477898945225204 -0.5303322493922972 0 0.5113314883867394 0.8593835633663247 0
          -0.6629713769860328 -0.7486447443863101 0 -0.7584326402683742 0.6517514328143382 0
          0.952883008256778 -0.30333804999622666 0 0.7971081025969066 0.603836627552817 0
          -0.671648610756758 -0.7408698560938467 0 -0.1488823635138846 -0.988854914451316 0
          0.4414287432264867 0.8972963081688704 0 -0.9648158998648805 -0.2629263763259992 0
          -0.9947839072976418 -0.10200479293463054 0 0.27050242859009377 0.9627192924870994 0
          0.989425589759241 0.14504138143846457 0 0.3016606843081868 0.9534153510106267 0
          0.7068088985260594 0.7074045384109284 0 -0.8782924759190269 -0.47812375672416185 0
          -0.7815690637933983 -0.6238187224836321 0 0.9721694633494223 -0.2342787539041816 0
          0.4731625409667897 0.8809751471102071 0 0.9576177301153314 -0.28804215484675216 0
          0.03268209946709116 -0.9994657975010567 0 -0.9581649362601106 -0.28621662237134005 0
          0.9170411366919149 0.39879261980984626 0 -0.4787751385389954 0.8779375642475755 0
          0.17948490151835933 -0.9837607280873458 0 -0.9998734301640901 0.015909860209832198 0
          -0.8265097104481227 -0.5629224622760762 0 -0.43672252280153495 0.8995962639305828 0
          0.7941603859244234 -0.6077082206358335 0 0.8178746408515718 0.575396447548916 0
          0.9310404501697566 -0.3649159905343928 0 -0.6106907650534834 0.7918691744716365 0
          -0.7092206364449422 0.7049865877026535 0 -0.9350478410990462 0.35452155767458343 0
          -0.9750270935085947 -0.2220859449046294 0 -0.7129548833128942 0.70120990748869 0
          -0.13009813627381286 -0.9915011220054571 0 0.847721307709895 -0.5304418766034839 0
          -0.9060870908440835 0.4230912239762314 0 -0.2382750790442736 -0.9711977073214522 0
          -0.6883090956109703 -0.7254175272897727 0 0.9956130643642327 0.0935661587715471 0
          0.32666731770875934 -0.9451393884189593 0 -0.9990325225965945 -0.043977480535895425 0
          0.8206638137832604 -0.5714113271074649 0 -0.9291491382337561 -0.3697051242807818 0
          -0.6991898918237637 0.7149360077457797 0 0.9676772935669251 -0.2521917038980287 0
          0.550949227602807 0.8345387639911465 0 0.14081755522636258 0.9900355630683528 0
          0.3330413112002083 0.942912236124893 0 -0.37380901103474745 0.9275056998580785 0
          0.23513887066303302 -0.9719617850015059 0 -0.9922940614233021 -0.12390518820472338 0
          -0.8405071788058177 0.5418004082463257 0 0.05427425191872802 -0.9985260665494229 0
          -0.6724432319060707 0.7401487011835651 0 -0.02463852160680829 -0.9996964255477914 0
          0.28541222082411805 0.9584048540174683 0 0.9852229020385277 -0.1712770658867721 0
          -0.8237393723777584 -0.5669686467475046 0 -0.9194631020144937 -0.39317630146523935 0
          -0.7583681954626735 0.6518264186964872 0 0.03980172057952694 0.9992075975686481 0
          -0.9520962810087588 0.3057984167540616 0 -0.41104140895892183 -0.9116166738937285 0
          0.8527771509380951 0.5222749571230707 0 0.5515573596837514 0.834136966558064 0
          0.9567509767472633 -0.29090817880073033 0 0.0973868238472698 -0.9952466058927008 0
          -0.9875132376319682 -0.15753604508691937 0 0.20128874559771107 -0.9795319499106193 0
          0.03511307249718834 0.999383345938788 0 0.9748360234153923 0.22292314247664946 0
          -0.7094711667374101 0.7047344631620183 0 0.9456824769018262 -0.3250917607089222 0
          -0.8863582489957439 -0.4630000587874681 0 0.7115610685425964 -0.70262425643762 0
          -0.7320531372644136 0.6812475352038564 0 0.5888706656670994 -0.808227281843905 0
          -0.9622530049108842 -0.27215648906460777 0 0.9990394817839523 0.043819103560571435 0
          0.0013655780188426472 0.9999990675979026 0 -0.6943696572466845 0.7196184955204541 0
          0.9775068880060804 -0.2109034942827364 0 0.9345491388062459 -0.355834100609405 0
          -0.9044789139062857 -0.4265183399326527 0 -0.9901341519527188 0.14012266460808662 0
          0.25921931963765266 0.9658184841504083 0 0.5202849413714805 -0.853992728178686 0
          0.5436765993802384 -0.8392947964132387 0 0.9891174663802813 0.14712796369641343 0
          -0.766712017949087 -0.641991184933593 0 -0.11068665300925194 -0.9938553540861012 0
          -0.9922657471218765 -0.12413173280295468 0 -0.7980106230670387 -0.6026433816712473 0
          -0.7963748976385863 0.6048032923282836 0 0.5918033792353425 -0.806082353314864 0
          0.9727028560478049 0.23205420452222625 0 -0.6369069093653429 -0.770940716788708 0
          0.9861613964686257 -0.16578811813592081 0 -0.3968039008348152 0.9179034068366203 0
          0.249860514727299 -0.9682818407778849 0 -0.8101673266965199 -0.5861986888021964 0
          -0.913733495140808 0.4063140409311041 0 0.7556979038077717 -0.6549203601817093 0
          -0.617707340257105 0.7864080631532799 0 -0.675523372477549 0.7373385743581836 0
          0.9244385418818656 0.38133106650695314 0 0.7201402651483199 0.6938285079989921 0
          0.8293785127146499 0.5586871062117286 0 -0.8275076532194194 0.5614544361417844 0
          -0.829221040226889 0.5589208051638765 0 -0.9814904199681678 0.19151124121238855 0
          0.7031446677564827 0.7110468171686205 0 0.9378204959109708 0.3471206093698568 0
          -0.8304166147916322 -0.5571429312824545 0 -0.04301382745072985 0.9990744770276332 0
          0.9300510662875822 -0.36743028467633343 0 0.9041290657737151 0.4272594439250573 0
          -0.4956389527013251 0.8685286573079404 0 0.9199134777627426 0.3921214013930587 0
          0.8532393022356569 -0.5215195999388799 0 -0.7421804909137071 -0.6702000588683119 0
          0.12921887796860201 0.9916160958639868 0 -0.9045735753253616 0.42631754224180385 0
          -0.30357964277106275 0.9528060665712588 0 0.44498398798379085 0.8955385253790266 0
          0.36226465099684035 -0.9320752773452032 0 -0.08159669475489026 0.9966654300240765 0
          0.5619313883544846 0.8271838458178457 0 0.22875975914319907 -0.973482908220142 0
          <InformationKey name="L2_NORM_RANGE" location="vtkDataArray" length="2">
            <Value index="0">
              1
            </Value>
            <Value index="1">
              1
            </Value>
          </InformationKey>
        </DataArray>
        <DataArray type="Float64" Name="velocity" NumberOfComponents="3" format="ascii" RangeMin="2.98391528750295" RangeMax="65.61664053985334">
          20.472372037415383 -30.489259884928693 0 -7.778161120144524 43.605506408926914 0
          -35.778279556590725 14.318100471258902 0 -2.7267860528004704 -6.306708942777526 0
          -25.56803597993237 0.5919415230237348 0 40.69440930810454 -42.34960265147567 0
          21.390392053252754 11.720491675449018 0 -31.091580543867785 -10.301819378431787 0
          -22.233594277397 35.80993014386058 0 40.8936574712134 11.727908496204755 0
          -31.918129728714472 1.502371966558826 0 32.46317064138093 -14.067556233339687 0
          31.61170207931397 -20.66117562390716 0 -32.788218903188394 -0.7210412736466054 0
          -30.467523066969363 36.43074923190564 0 -29.58028331655805 11.627227611362315 0
          37.80505508071815 -10.753091333426255 0 44.65772551607054 -33.330173144632525 0
          47.18774005931614 6.396489460552942 0 9.836891189866492 -36.87781496106794 0
          6.677739541459459 5.438027088135769 0 -18.951003944933063 -37.93510690561732 0
          23.77908201111339 -25.727634747998636 0 32.285914726045576 -31.45240287607238 0
          -18.732306147503376 38.172541468590836 0 17.42129460906331 23.929755673071398 0
          -43.74567596165927 -36.843843838172035 0 -41.00470913383489 -49.1685554695042 0
          -4.3489588147394045 13.430332075080756 0 2.9762992276979077 -0.21305715242312573 0
          -16.420210149222868 -24.717665071237764 0 -26.63245586108499 -32.68369682188443 0
          9.59810303037343 22.68931438280859 0 37.757309281314306 20.71597266757422 0
          -26.523439665569285 -2.200425364398683 0 -48.17882370239545 24.733119867345934 0
          15.472358145094617 -42.19330576503555 0 -2.7230899171649696 49.647506705142575 0
          3.209752212846098 39.943600631846664 0 27.290092728339346 -29.624030405099575 0
          40.710862227344634 -12.518743865476708 0 34.808888796398136 -17.330075407408792 0
          -17.326333983387784 15.921061981020685 0 8.676498234140595 -45.101679767889145 0
          26.99656655139428 -0.8247828969564566 0 -1.181598492863479 -7.087342925864128 0
          -10.527228461045638 27.645380145270124 0 47.47543864880045 24.850515939083976 0
          13.45020038299144 -42.781974126121774 0 13.33632968921519 2.89206325620421 0
          -20.383234879262602 -17.467213088655853 0 13.111992425538233 49.45054225750374 0
          1.6047826830209004 22.445391370448775 0 -25.442525168919026 -16.766088433362327 0
          24.860911549332883 18.296648546241826 0 18.127137052491975 -42.11576276898946 0
          -4.106371249565804 19.81468592825003 0 -43.2115168522386 -43.085994704941484 0
          2.7042817825837204 -23.795120132132308 0 -1.6624837545658195 -36.91945356486498 0
          -40.55592314206473 -37.96183180819797 0 46.98372058379586 25.62816454897687 0
          -23.182362140209666 22.4905983535036 0 -8.42374893276238 -2.5281598168396826 0
          -44.45585735866184 11.374414308737222 0 -0.9380815156004232 40.44748670579848 0
          43.5214270198436 41.82766196839604 0 -19.617472876146607 29.010177679462174 0
          -27.377259211045168 -5.104813753149479 0 1.0108912986547693 -26.93680745999526 0
          21.18807799653547 48.4452609761332 0 15.521324819791857 -22.733301715898534 0
          -3.0984436752635744 -49.699879474370995 0 -5.357606698271908 47.09441502974741 0
          -19.533649987483585 -28.48909553641595 0 -25.241492794096537 30.645102659141713 0
          -1.3628901407151872 -9.249808436218693 0 -28.437070584076316 4.0252086974848424 0
          22.302423751473526 -21.630608392707323 0 4.286209731170565 25.592468486596516 0
          -16.80227135673981 30.176297340482108 0 35.70724318896097 -48.51082997011254 0
          38.494266527440914 9.308694076898924 0 -41.37827709570729 42.48759424258512 0
          41.371957205314274 48.07567751376408 0 40.00221093710812 44.971458396046486 0
          43.45219546574209 -49.16757290067578 0 27.77940311086799 -47.40411222574361 0
          8.787704962513757 14.978077069606684 0 -17.176354508003442 -38.89206379839693 0
          -37.572734230027905 47.39150589914381 0 3.322947059262674 16.230028184641725 0
          20.82576325094061 -43.12614201683975 0 -29.404442159877867 -6.6570323329381935 0
          -48.88074135310182 -43.07374742736768 0 -15.693819004659524 -18.776991949103287 0
          49.2742614956165 -23.093566379026992 0 35.70662412955289 -14.438908494432013 0
          24.676827977366614 34.48562696853686 0 -28.28613766609157 46.49521791482232 0
          21.219265309149932 48.266786794162286 0 25.989900495501132 -30.673962513745963 0
          -14.741048879365302 -30.369965831724773 0 33.206792723445574 45.25947670903301 0
          26.73700517552618 36.1968809297727 0 -4.433626259916984 -16.731616061562868 0
          33.82599634129042 5.430878965379037 0 -37.91344272052366 -28.781627030961573 0
          -0.8760744559602713 -9.034520229977083 0 25.951148963832622 -14.29357740625877 0
          27.17860558051683 48.15404052238152 0 34.61617221348607 33.462162550860555 0
          -13.28055184508198 -44.93740558320786 0 47.55616001461492 34.25892934866374 0
          36.946038841117556 -42.45015674570037 0 -46.76239316488481 11.393180618063838 0
          23.568028568935404 11.552780427737098 0 16.263007945057282 45.12644264060411 0
          -23.411248530157515 41.93857265065735 0 -38.160345232049345 -18.69342940760771 0
          37.21153998486223 -26.635630373860984 0 30.80584946405935 5.653176675427417 0
          44.35923105765637 0.370346282237378 0 16.64168251311186 -34.7034267378138 0
          47.322877480901255 13.376690736606477 0 -32.1350217035443 -42.58571958176201 0
          -0.5025219679409361 28.59799073613067 0 -3.5320261053794297 38.30316610148137 0
          14.736889949280638 40.32409694969634 0 -49.402638529229115 19.356180838194604 0
          8.508964450503598 -39.46387075781778 0 49.03198966734128 -27.000797471280585 0
          -16.70921662991016 18.938285128010065 0 46.14207459237997 -27.3400906744995 0
          42.424140585792586 37.62461911345025 0 -6.825547086494495 -2.911259141055119 0
          6.210247997996007 33.76154121673389 0 -35.16911208657487 13.927818279591207 0
          49.5593687100304 13.93941034113417 0 -6.0481675260535965 -47.161165000275155 0
          -41.68490984500472 3.0367185203014984 0 28.200151364646487 23.664522522360798 0
          -30.983903256438072 -23.817273645282434 0 -4.775523168997552 -3.9973115200368454 0
          17.36371431475763 -32.304692769073746 0 -31.21691646176371 -40.35131875297581 0
          -17.61253928181918 -32.96735050248542 0 -47.52659271635095 33.064298464373394 0
          -25.51716157275273 -35.79649925661745 0 -34.4558032257712 -19.698927528483058 0
          -46.64276824331557 -9.071061809886274 0 28.312364537561464 -5.662808823633235 0
          -48.25117889494449 -21.421563451189467 0 45.139670111270334 -32.86849758057289 0
          <InformationKey name="L2_NORM_RANGE" location="vtkDataArray" length="2">
            <Value index="0">
              2.9839152875
            </Value>
            <Value index="1">
              65.61664054
            </Value>
          </InformationKey>
        </DataArray>
        <DataArray type="Float64" Name="force" NumberOfComponents="3" format="ascii" RangeMin="0.49999999999999994" RangeMax="0.5">
          -0.4912840680820475 -0.09295140907352675 0 0.32121343179908635 -0.38317350016911883 0
          -0.22907144725459144 -0.4444392782514693 0 0.15213290843872093 0.47629358401092886 0
          -0.47141549950685374 0.16663561091406473 0 -0.15938912756934473 0.47391466110754915 0
          0.3478231723153218 0.35919220592950785 0 0.35993250421883655 0.34705704488852723 0
          0.4980660002438089 -0.0439347174923675 0 -0.3099103280457069 -0.39237174792612467 0
          -0.2772491155314622 0.4160924511896628 0 -0.46919754815717934 0.17278211945479593 0
          -0.33945423044959344 -0.3671114618612095 0 -0.07432628336449826 0.4944447427177483 0
          0.38613691219864477 0.31764490400082934 0 0.46552165799045153 -0.18245433933404015 0
          -0.27012130609349155 -0.4207546553448295 0 -0.3383504417102691 0.36812902438474715 0
          0.4566091313291474 -0.20373537048544477 0 -0.474149582359261 -0.15868892068615992 0
          0.2693388445487783 0.42125596353894984 0 0.25558746513522085 -0.4297383479115545 0
          -0.4238949472612602 -0.2651661246961486 0 0.2556657441933697 0.42969178168316235 0
          -0.3314856884930164 -0.37432237219315506 0 -0.3792163201341871 0.3258757164071691 0
          0.476441504128389 -0.15166902499811333 0 0.3985540512984533 0.3019183137764085 0
          -0.335824305378379 -0.37043492804692335 0 -0.0744411817569423 -0.494427457225658 0
          0.22071437161324334 0.4486481540844352 0 -0.48240794993244024 -0.1314631881629996 0
          -0.4973919536488209 -0.05100239646731527 0 0.13525121429504688 0.4813596462435497 0
          0.4947127948796205 0.07252069071923228 0 0.1508303421540934 0.47670767550531334 0
          0.3534044492630297 0.3537022692054642 0 -0.43914623795951346 -0.23906187836208093 0
          -0.39078453189669915 -0.31190936124181606 0 0.48608473167471117 -0.1171393769520908 0
          0.23658127048339486 0.44048757355510354 0 0.4788088650576657 -0.14402107742337608 0
          0.01634104973354558 -0.49973289875052834 0 -0.4790824681300553 -0.14310831118567002 0
          0.45852056834595745 0.19939630990492313 0 -0.2393875692694977 0.43896878212378776 0
          0.08974245075917966 -0.4918803640436729 0 -0.49993671508204507 0.007954930104916099 0
          -0.41325485522406136 -0.2814612311380381 0 -0.21836126140076748 0.4497981319652914 0
          0.3970801929622117 -0.30385411031791676 0 0.4089373204257859 0.287698223774458 0
          0.4655202250848783 -0.1824579952671964 0 -0.3053453825267417 0.39593458723581826 0
          -0.3546103182224711 0.35249329385132677 0 -0.4675239205495231 0.17726077883729172 0
          -0.48751354675429737 -0.1110429724523147 0 -0.3564774416564471 0.350604953744345 0
          -0.06504906813690643 -0.4957505610027286 0 0.4238606538549475 -0.2652209383017419 0
          -0.4530435454220417 0.2115456119881157 0 -0.1191375395221368 -0.4855988536607261 0
          -0.34415454780548516 -0.36270876364488636 0 0.49780653218211635 0.04678307938577355 0
          0.16333365885437967 -0.47256969420947964 0 -0.49951626129829724 -0.021988740267947712 0
          0.4103319068916302 -0.28570566355373245 0 -0.46457456911687806 -0.1848525621403909 0
          -0.34959494591188184 0.35746800387288985 0 0.48383864678346256 -0.12609585194901435 0
          0.2754746138014035 0.41726938199557323 0 0.07040877761318129 0.4950177815341764 0
          0.16652065560010415 0.4714561180624465 0 -0.18690450551737373 0.46375284992903926 0
          0.11756943533151651 -0.48598089250075294 0 -0.49614703071165106 -0.06195259410236169 0
          -0.42025358940290886 0.27090020412316285 0 0.02713712595936401 -0.49926303327471144 0
          -0.33622161595303535 0.37007435059178256 0 -0.012319260803404146 -0.4998482127738957 0
          0.14270611041205902 0.47920242700873417 0 0.49261145101926385 -0.08563853294338605 0
          -0.4118696861888792 -0.2834843233737523 0 -0.45973155100724683 -0.19658815073261968 0
          -0.37918409773133677 0.3259132093482436 0 0.01990086028976347 0.49960379878432404 0
          -0.4760481405043794 0.1528992083770308 0 -0.20552070447946091 -0.45580833694686423 0
          0.42638857546904757 0.26113747856153535 0 0.2757786798418757 0.417068483279032 0
          0.47837548837363164 -0.14545408940036517 0 0.0486934119236349 -0.4976233029463504 0
          -0.4937566188159841 -0.07876802254345969 0 0.10064437279885553 -0.48976597495530966 0
          0.01755653624859417 0.499691672969394 0 0.48741801170769616 0.11146157123832473 0
          -0.35473558336870503 0.35236723158100913 0 0.4728412384509131 -0.1625458803544611 0
          -0.44317912449787195 -0.23150002939373404 0 0.3557805342712982 -0.35131212821881 0
          -0.3660265686322068 0.3406237676019282 0 0.2944353328335497 -0.4041136409219525 0
          -0.4811265024554421 -0.13607824453230388 0 0.49951974089197615 0.021909551780285717 0
          0.0006827890094213236 0.4999995337989513 0 -0.34718482862334227 0.35980924776022705 0
          0.4887534440030402 -0.1054517471413682 0 0.46727456940312295 -0.1779170503047025 0
          -0.4522394569531428 -0.21325916996632635 0 -0.4950670759763594 0.07006133230404331 0
          0.12960965981882633 0.48290924207520414 0 0.26014247068574026 -0.426996364089343 0
          0.2718382996901192 -0.41964739820661934 0 0.49455873319014065 0.07356398184820671 0
          -0.3833560089745435 -0.3209955924667965 0 -0.05534332650462597 -0.4969276770430506 0
          -0.49613287356093827 -0.06206586640147734 0 -0.39900531153351937 -0.30132169083562366 0
          -0.39818744881929313 0.3024016461641418 0 0.29590168961767127 -0.403041176657432 0
          0.48635142802390247 0.11602710226111312 0 -0.31845345468267144 -0.385470358394354 0
          0.49308069823431283 -0.08289405906796041 0 -0.1984019504174076 0.45895170341831015 0
          0.1249302573636495 -0.48414092038894246 0 -0.40508366334825996 -0.2930993444010982 0
          -0.456866747570404 0.20315702046555206 0 0.37784895190388584 -0.32746018009085465 0
          -0.3088536701285525 0.39320403157663997 0 -0.3377616862387745 0.3686692871790918 0
          0.4622192709409328 0.19066553325347657 0 0.36007013257415993 0.34691425399949605 0
          0.41468925635732495 0.2793435531058643 0 -0.4137538266097097 0.2807272180708922 0
          -0.4146105201134445 0.27946040258193827 0 -0.4907452099840839 0.09575562060619427 0
          0.3515723338782413 0.35552340858431025 0 0.4689102479554854 0.1735603046849284 0
          -0.4152083073958161 -0.27857146564122726 0 -0.021506913725364923 0.4995372385138166 0
          0.4650255331437911 -0.18371514233816671 0 0.45206453288685755 0.21362972196252866 0
          -0.24781947635066254 0.4342643286539702 0 0.4599567388813713 0.19606070069652934 0
          0.42661965111782846 -0.26075979996943993 0 -0.37109024545685354 -0.33510002943415595 0
          0.06460943898430101 0.4958080479319934 0 -0.4522867876626808 0.21315877112090192 0
          -0.15178982138553138 0.4764030332856294 0 0.22249199399189543 0.4477692626895133 0
          0.18113232549842018 -0.4660376386726016 0 -0.04079834737744513 0.49833271501203824 0
          0.2809656941772423 0.4135919229089228 0 0.11437987957159954 -0.486741454110071 0
          <InformationKey name="L2_NORM_RANGE" location="vtkDataArray" length="2">
            <Value index="0">
              0.5
            </Value>
            <Value index="1">
              0.5
            </Value>
          </InformationKey>
        </DataArray>
        <DataArray type="Float64" Name="radius" format="ascii" RangeMin="1" RangeMax="1">
          1 1 1 1 1 1
          1 1 1 1 1 1
          1 1 1 1 1 1
          1 1 1 1 1 1
          1 1 1 1 1 1
          1 1 1 1 1 1
          1 1 1 1 1 1
          1 1 1 1 1 1
          1 1 1 1 1 1
          1 1 1 1 1 1
          1 1 1 1 1 1
          1 1 1 1 1 1
          1 1 1 1 1 1
          1 1 1 1 1 1
          1 1 1 1 1 1
          1 1 1 1 1 1
          1 1 1 1 1 1
          1 1 1 1 1 1
          1 1 1 1 1 1
          1 1 1 1 1 1
          1 1 1 1 1 1
          1 1 1 1 1 1
          1 1 1 1 1 1
          1 1 1 1 1 1
          1 1 1 1 1 1
          1 1 1 1
        </DataArray>
      </PointData>
      <CellData>
      </CellData>
      <Points>
        <DataArray type="Float32" Name="Points" NumberOfComponents="3" format="ascii" RangeMin="2.5887618910612376" RangeMax="67.38773169728354">
          -37.73240280151367 34.153656005859375 0 46.669944763183594 -28.22171401977539 0
          -20.267972946166992 4.605607986450195 0 -31.314443588256836 50.09415054321289 0
          48.78901290893555 46.48374557495117 0 21.97304344177246 48.59999084472656 0
          -40.44820022583008 29.248022079467773 0 -19.46683120727539 -49.91984176635742 0
          -39.21989822387695 13.443037033081055 0 37.66117477416992 0.35810959339141846 0
          29.358667373657227 -13.554130554199219 0 -28.8847713470459 17.958148956298828 0
          -10.918830871582031 23.56328010559082 0 -3.205116033554077 -7.2807536125183105 0
          -32.519832611083984 -19.909738540649414 0 28.596450805664062 -18.376073837280273 0
          36.83378219604492 -34.74602508544922 0 48.640506744384766 31.29134178161621 0
          -37.98005676269531 26.0743465423584 0 -1.3792952299118042 15.395204544067383 0
          -38.351043701171875 -28.035930633544922 0 -44.98335266113281 -45.63633728027344 0
          -9.145852088928223 -4.374104976654053 0 -1.6256874799728394 29.512653350830078 0
          41.542396545410156 30.293174743652344 0 20.833498001098633 -50.33628845214844 0
          21.00422477722168 14.552160263061523 0 -4.391211032867432 27.2399845123291 0
          7.532878398895264 37.47308349609375 0 30.481441497802734 -47.9776496887207 0
          32.7509880065918 32.788429260253906 0 43.63230514526367 -8.975608825683594 0
          -7.883049964904785 8.037800788879395 0 -33.95858383178711 26.329973220825195 0
          -26.625804901123047 31.44281768798828 0 49.33838653564453 -17.478504180908203 0
          -20.539934158325195 -48.29631805419922 0 -29.372371673583984 40.52500534057617 0
          34.07935333251953 45.26015090942383 0 27.50137710571289 49.468441009521484 0
          -42.773353576660156 29.373109817504883 0 9.449484825134277 23.848665237426758 0
          19.37230110168457 18.50745964050293 0 -10.775741577148438 6.011527061462402 0
          -29.761545181274414 2.4510340690612793 0 -9.854830741882324 -14.757916450500488 0
          9.016202926635742 -13.462871551513672 0 46.51126480102539 -35.009952545166016 0
          -11.349538803100586 -12.088109970092773 0 22.295042037963867 -11.87302303314209 0
          42.51396942138672 -6.399810791015625 0 35.06312561035156 12.072240829467773 0
          -36.79014587402344 -2.2636754512786865 0 -15.22629451751709 4.070321083068848 0
          21.90835189819336 48.21757125854492 0 21.440448760986328 41.50040817260742 0
          1.129726767539978 5.875860214233398 0 0.9025515913963318 -3.6521430015563965 0
          4.916475296020508 -5.830163955688477 0 34.936092376708984 10.421319961547852 0
          1.1241815090179443 47.9680290222168 0 -47.046875 47.30756378173828 0
          -14.359576225280762 17.226789474487305 0 -14.956368446350098 35.743011474609375 0
          -45.3797721862793 15.150735855102539 0 24.4432373046875 -36.26394271850586 0
          48.202003479003906 -40.54852294921875 0 -21.716611862182617 30.624723434448242 0
          -42.2660026550293 13.664704322814941 0 -48.8094367980957 18.891828536987305 0
          3.2377102375030518 -6.02583646774292 0 -30.017440795898438 -34.79468536376953 0
          -11.476861000061035 26.509004592895508 0 -46.85138702392578 -24.659244537353516 0
          1.3411279916763306 33.04859924316406 0 47.3407096862793 32.48131561279297 0
          -19.373435974121094 -44.10382843017578 0 -24.348295211791992 3.641568899154663 0
          39.15480041503906 -15.191041946411133 0 -47.14069366455078 -33.41510009765625 0
          38.33272933959961 -29.88027572631836 0 -23.510906219482422 -0.28593310713768005 0
          -27.450153350830078 -0.6593148708343506 0 44.470802307128906 15.592293739318848 0
          26.454212188720703 -6.662802219390869 0 4.9879841804504395 -44.67194747924805 0
          -17.06484031677246 -8.497143745422363 0 40.39329528808594 31.061424255371094 0
          -24.479772567749023 -36.36373519897461 0 -1.7068002223968506 -11.4959716796875 0
          21.96377182006836 -20.9965763092041 0 11.59786605834961 31.526126861572266 0
          -18.752418518066406 -11.90636920928955 0 -14.980461120605469 31.367605209350586 0
          18.296667098999023 -12.139376640319824 0 -4.450051784515381 -18.874475479125977 0
          40.668487548828125 -1.6391009092330933 0 26.099531173706055 -37.9642333984375 0
          -9.605759620666504 37.43056106567383 0 -12.987761497497559 41.95603942871094 0
          5.150379657745361 -35.65420913696289 0 -29.41925621032715 44.982093811035156 0
          49.4996223449707 -26.785720825195312 0 -47.860877990722656 -11.508251190185547 0
          28.343259811401367 -3.159104585647583 0 4.254594802856445 -48.54756546020508 0
          39.655635833740234 -29.539730072021484 0 39.131099700927734 -5.753907680511475 0
          -34.53099822998047 -26.220129013061523 0 28.997276306152344 -2.5309579372406006 0
          -40.487667083740234 15.351211547851562 0 14.182695388793945 7.9321136474609375 0
          21.70015525817871 -15.04635238647461 0 18.53579330444336 20.204118728637695 0
          -33.92560958862305 -36.54426574707031 0 -4.781477451324463 -46.02821731567383 0
          30.165536880493164 -32.860008239746094 0 32.52770233154297 -16.74229621887207 0
          15.825684547424316 -8.235100746154785 0 27.201749801635742 -38.413883209228516 0