<?xml version="1.0"?>
<VTKFile type="PolyData" version="0.1" byte_order="LittleEndian" header_type="UInt32" compressor="vtkZLibDataCompressor">
  <PolyData>
    <Piece NumberOfPoints="154" NumberOfVerts="0" NumberOfLines="0" NumberOfStrips="0" NumberOfPolys="0">
      <PointData>
        <DataArray type="Int32" Name="id" format="ascii" RangeMin="0" RangeMax="153">
          0 1 2 3 4 5
          6 7 8 9 10 11
          12 13 14 15 16 17
          18 19 20 21 22 23
          24 25 26 27 28 29
          30 31 32 33 34 35
          36 37 38 39 40 41
          42 43 44 45 46 47
          48 49 50 51 52 53
          54 55 56 57 58 59
          60 61 62 63 64 65
          66 67 68 69 70 71
          72 73 74 75 76 77
          78 79 80 81 82 83
          84 85 86 87 88 89
          90 91 92 93 94 95
          96 97 98 99 100 101
          102 103 104 105 106 107
          108 109 110 111 112 113
          114 115 116 117 118 119
          120 121 122 123 124 125
          126 127 128 129 130 131
          132 133 134 135 136 137
          138 139 140 141 142 143
          144 145 146 147 148 149
          150 151 152 153
        </DataArray>
        <DataArray type="Float64" Name="director" NumberOfComponents="3" format="ascii" RangeMin="0.9999999999999999" RangeMax="1">
          -0.8209549228704338 -0.5709930075007925 0 0.0109786095557428 -0.9999397332500707 0
          -0.3099894425456055 -0.9507399989009954 0 -0.06026719044392434 0.9981822808265011 0
          -0.48091159683357887 0.8767690893450666 0 0.9062966499459805 0.42264214448714515 0
          0.9513301420657403 -0.30817358874046685 0 0.9039357327845645 0.42766831890523804 0
          0.9999898283576658 -0.004510341584191685 0 -0.49911345620815917 -0.8665366454062667 0
          -0.7487575567889304 0.6628439644075155 0 -0.9758271776965466 -0.2185436324141987 0
          0.23304272024287231 -0.9724664984161677 0 -0.5141354690919625 0.8577089946022414 0
          0.8140872492645256 0.5807425854756291 0 0.97569903757019 0.21911501108916515 0
          -0.7360145889166196 -0.6769656748328524 0 -0.9901311754630537 0.1401436954563115 0
          0.9490170471769535 -0.31522475183198434 0 -0.9999826139808529 -0.005896756398283942 0
          0.9163834949599489 0.4003014990791183 0 0.9055767894950122 -0.4241823644706441 0
          -0.7447674244806263 -0.6673241217223416 0 0.6006520507578962 0.7995105464722362 0
          -0.9389698170642891 -0.3439995387238993 0 -0.5536723770113 0.8327345909319829 0
          0.9852099548614252 -0.17135152418916066 0 0.9996877687033253 -0.024987298872961573 0
          -0.969082746839004 -0.24673595153315395 0 -0.07182054469810713 -0.9974175702078178 0
          0.5650396515109798 0.8250637503977195 0 -0.9971051934099877 -0.07603442164461406 0
          -0.9968178077103867 0.07971360129525151 0 0.16264473841478475 0.9866846958709689 0
          0.8470674424013054 -0.5314854165672952 0 0.05091880370684963 0.9987027963458716 0
          0.6438592936048949 0.7651439145929383 0 -0.21717861654172468 -0.9761318806990286 0
          -0.9944122548550168 -0.10556641224443089 0 0.937767508691509 -0.3472637321151182 0
          -0.1832833857550805 0.9830601204942424 0 0.41576576791546355 -0.9094717292085911 0
          0.5520707692996458 -0.8337972569425359 0 -0.9951653860615077 -0.09821331063074001 0
          0.12327841886959147 0.9923721234703309 0 -0.7344468859512204 0.6786661710418127 0
          0.7904921264325032 -0.6124722018575369 0 -0.4790655757776671 0.8777791146437766 0
          -0.2338519961981218 -0.972272206675761 0 -0.972338372718125 0.2335767303047729 0
          0.711933343077963 -0.7022470469954541 0 0.7526663078280245 -0.6584021788090691 0
          0.964425276726101 -0.26435560446448564 0 0.30683553897787347 0.9517625502299184 0
          -0.46274317236335033 0.8864923893813769 0 -0.9899715072123473 0.14126717562021746 0
          -0.9908745104920313 -0.1347876272406978 0 0.5375830085126537 0.8432108330414666 0
          -0.46410828630398304 -0.8857784703773174 0 0.713689116453474 -0.7004625936164326 0
          -0.9064220460731912 -0.42237314591778874 0 -0.48316429120512777 -0.8755297069227557 0
          -0.7343672600653701 -0.6787523313728514 0 0.871876214497809 -0.48972631805220596 0
          0.7172260000356846 -0.6968406308997863 0 -0.9827856263156574 -0.18474959460670304 0
          0.9666816377454903 -0.2559816619324453 0 -0.985085935844028 -0.172063066932725 0
          -0.7561703878294412 0.654374773787829 0 0.992549911519851 -0.12183871774578117 0
          -0.3887619059123078 0.921338255208927 0 -0.07180396900303417 0.9974187636270992 0
          -0.09220239149313615 0.9957402869237272 0 -0.00909074221942284 0.9999586783492106 0
          0.1455475272166375 -0.9893512608376877 0 -0.8964135313008925 -0.44321866037054874 0
          -0.9445193659827201 -0.3284557310865507 0 0.6415123212373235 -0.7671127307643258 0
          -0.5558570051109613 0.8312779257679545 0 0.5212974850831193 -0.8533750242689405 0
          -0.7121906593944751 0.7019860858102978 0 0.8889705442734466 -0.4579643778878137 0
          -0.5510975449137753 -0.834440828333567 0 -0.9477623485740994 -0.31897731992307454 0
          -0.9735678433767898 -0.22839801737901877 0 0.1378532812715426 0.9904526605762988 0
          -0.9561253708997207 -0.2929578043368559 0 0.4753571521744179 -0.8797929176099495 0
          0.9602216279848925 -0.2792390107954879 0 -0.18720097824321724 0.9823216345702575 0
          -0.46279217783085413 -0.8864668071273595 0 -0.8380497471102706 -0.5455938245328769 0
          -0.9602259940111056 -0.2792239968652125 0 0.3378347369353597 -0.9412054454367634 0
          0.42775319729931727 0.9038955704063447 0 0.995314375734888 0.09669174450525882 0
          -0.9838999562588858 0.17872010539881222 0 0.9616909002069822 -0.2741361203108487 0
          -0.9287462227690387 -0.37071613627173416 0 0.8691177359545786 -0.4946052578058459 0
          -0.5987332710876829 0.8009484815471237 0 0.5512586172305677 -0.8343344275103614 0
          -0.7299148505090658 -0.6835380830695011 0 0.8870419069459331 -0.46168891617811514 0
          -0.7612795651922593 0.6484237993941036 0 -0.9451041776574517 0.3267691744556576 0
          0.9535435367499663 0.3012552464644651 0 0.5245940398861845 -0.8513525082572391 0
          0.40413865043920544 -0.9146977376276699 0 -0.9292677015062366 -0.36940700986488584 0
          -0.3226981978645905 0.9465019139415122 0 -0.19474769433472938 -0.9808533710760782 0
          0.31918440962248995 -0.9476926256196904 0 0.8917302991782793 -0.4525672033272147 0
          -0.02181810196252507 -0.9997619568811132 0 0.12692106184117488 -0.9919128207968222 0
          -0.46030851125234423 -0.8877590182412401 0 -0.8872994731424232 -0.4611937173912696 0
          -0.8553006671336333 0.5181319993985719 0 0.38767251409125536 -0.9217971695650651 0
          0.9747485302960588 0.22330540227606077 0 0.4740154897641534 -0.8805165049353986 0
          0.1373754338919367 -0.9905190508834255 0 -0.09454717749795326 0.9955203821254341 0
          0.4482722014251777 -0.8938971044977296 0 -0.2882642184220785 -0.9575509074600203 0
          -0.9738996829651695 -0.22697887020677115 0 0.8579276011408864 -0.5137706017286744 0
          -0.8802097470982131 0.4745848724025027 0 -0.9892827484820235 0.14601247739783546 0
          0.4640759776297797 0.8857953979260471 0 0.6386152864564929 0.7695261632355923 0
          0.8254853475180047 0.564423547553678 0 -0.9564993760431034 0.29173437169650385 0
          -0.9318012855603537 0.3629688199116725 0 -0.9159146901543725 -0.40137299405841903 0
          0.5280851621214343 0.8491914163174157 0 0.823050763077708 0.567967817219605 0
          -0.904011754939752 -0.4275075986818827 0 0.5156222592729877 0.856816016273167 0
          0.2341356086107301 -0.9722039481407607 0 0.9995102578526207 -0.03129288173670957 0
          -0.7974578157104142 0.6033747029519675 0 0.8864226034367451 0.4628768390365011 0
          0.999440112984925 0.033458340614568635 0 -0.7918955276253471 -0.6106565919786449 0
          0.4398297892291518 0.8980811525172099 0 -0.857693940830708 0.5141605817857782 0
          -0.8280845427306752 0.5606032376739618 0 0.6646915993907792 0.7471178472632869 0
          0.19117874838612314 -0.981555238468786 0 0.2882598203759173 0.9575522314510284 0
          0.5249161493857565 0.851153943839791 0 0.13348209901967262 -0.991051224327634 0
          <InformationKey name="L2_NORM_RANGE" location="vtkDataArray" length="2">
            <Value index="0">
              1
            </Value>
            <Value index="1">
              1
            </Value>
          </InformationKey>
        </DataArray>
        <DataArray type="Float64" Name="velocity" NumberOfComponents="3" format="ascii" RangeMin="2.98391528750295" RangeMax="65.61664053985334">
          20.472372037415383 -30.489259884928693 0 -7.778161120144524 43.605506408926914 0
          -35.778279556590725 14.318100471258902 0 -2.7267860528004704 -6.306708942777526 0
          -25.56803597993237 0.5919415230237348 0 40.69440930810454 -42.34960265147567 0
          21.390392053252754 11.720491675449018 0 -31.091580543867785 -10.301819378431787 0
          -22.233594277397 35.80993014386058 0 40.8936574712134 11.727908496204755 0
          -31.918129728714472 1.502371966558826 0 32.46317064138093 -14.067556233339687 0
          31.61170207931397 -20.66117562390716 0 -32.788218903188394 -0.7210412736466054 0
          -30.467523066969363 36.43074923190564 0 -29.58028331655805 11.627227611362315 0
          37.80505508071815 -10.753091333426255 0 44.65772551607054 -33.330173144632525 0
          47.18774005931614 6.396489460552942 0 9.836891189866492 -36.87781496106794 0
          6.677739541459459 5.438027088135769 0 -18.951003944933063 -37.93510690561732 0
          23.77908201111339 -25.727634747998636 0 32.285914726045576 -31.45240287607238 0
          -18.732306147503376 38.172541468590836 0 17.42129460906331 23.929755673071398 0
          -43.74567596165927 -36.843843838172035 0 -41.00470913383489 -49.1685554695042 0
          -4.3489588147394045 13.430332075080756 0 2.9762992276979077 -0.21305715242312573 0
          -16.420210149222868 -24.717665071237764 0 -26.63245586108499 -32.68369682188443 0
          9.59810303037343 22.68931438280859 0 37.757309281314306 20.71597266757422 0
          -26.523439665569285 -2.200425364398683 0 -48.17882370239545 24.733119867345934 0
          15.472358145094617 -42.19330576503555 0 -2.7230899171649696 49.647506705142575 0
          3.209752212846098 39.943600631846664 0 27.290092728339346 -29.624030405099575 0
          40.710862227344634 -12.518743865476708 0 34.808888796398136 -17.330075407408792 0
          -17.326333983387784 15.921061981020685 0 8.676498234140595 -45.101679767889145 0
          26.99656655139428 -0.8247828969564566 0 -1.181598492863479 -7.087342925864128 0
          -10.527228461045638 27.645380145270124 0 47.47543864880045 24.850515939083976 0
          13.45020038299144 -42.781974126121774 0 13.33632968921519 2.89206325620421 0
          -20.383234879262602 -17.467213088655853 0 13.111992425538233 49.45054225750374 0
          1.6047826830209004 22.445391370448775 0 -25.442525168919026 -16.766088433362327 0
          24.860911549332883 18.296648546241826 0 18.127137052491975 -42.11576276898946 0
          -4.106371249565804 19.81468592825003 0 -43.2115168522386 -43.085994704941484 0
          2.7042817825837204 -23.795120132132308 0 -1.6624837545658195 -36.91945356486498 0
          -40.55592314206473 -37.96183180819797 0 46.98372058379586 25.62816454897687 0
          -23.182362140209666 22.4905983535036 0 -8.42374893276238 -2.5281598168396826 0
          -44.45585735866184 11.374414308737222 0 -0.9380815156004232 40.44748670579848 0
          43.5214270198436 41.82766196839604 0 -19.617472876146607 29.010177679462174 0
          -27.377259211045168 -5.104813753149479 0 1.0108912986547693 -26.93680745999526 0
          21.18807799653547 48.4452609761332 0 15.521324819791857 -22.733301715898534 0
          -3.0984436752635744 -49.699879474370995 0 -5.357606698271908 47.09441502974741 0
          -19.533649987483585 -28.48909553641595 0 -25.241492794096537 30.645102659141713 0
          -1.3628901407151872 -9.249808436218693 0 -28.437070584076316 4.0252086974848424 0
          22.302423751473526 -21.630608392707323 0 4.286209731170565 25.592468486596516 0
          -16.80227135673981 30.176297340482108 0 35.70724318896097 -48.51082997011254 0
          38.494266527440914 9.308694076898924 0 -41.37827709570729 42.48759424258512 0
          41.371957205314274 48.07567751376408 0 40.00221093710812 44.971458396046486 0
          43.45219546574209 -49.16757290067578 0 27.77940311086799 -47.40411222574361 0
          8.787704962513757 14.978077069606684 0 -17.176354508003442 -38.89206379839693 0
          -37.572734230027905 47.39150589914381 0 3.322947059262674 16.230028184641725 0
          20.82576325094061 -43.12614201683975 0 -29.404442159877867 -6.6570323329381935 0
          -48.88074135310182 -43.07374742736768 0 -15.693819004659524 -18.776991949103287 0
          49.2742614956165 -23.093566379026992 0 35.70662412955289 -14.438908494432013 0
          24.676827977366614 34.48562696853686 0 -28.28613766609157 46.49521791482232 0
          21.219265309149932 48.266786794162286 0 25.989900495501132 -30.673962513745963 0
          -14.741048879365302 -30.369965831724773 0 33.206792723445574 45.25947670903301 0
          26.73700517552618 36.1968809297727 0 -4.433626259916984 -16.731616061562868 0
          33.82599634129042 5.430878965379037 0 -37.91344272052366 -28.781627030961573 0
          -0.8760744559602713 -9.034520229977083 0 25.951148963832622 -14.29357740625877 0
          27.17860558051683 48.15404052238152 0 34.61617221348607 33.462162550860555 0
          -13.28055184508198 -44.93740558320786 0 47.55616001461492 34.25892934866374 0
          36.946038841117556 -42.45015674570037 0 -46.76239316488481 11.393180618063838 0
          23.568028568935404 11.552780427737098 0 16.263007945057282 45.12644264060411 0
          -23.411248530157515 41.93857265065735 0 -38.160345232049345 -18.69342940760771 0
          37.21153998486223 -26.635630373860984 0 30.80584946405935 5.653176675427417 0
          44.35923105765637 0.370346282237378 0 16.64168251311186 -34.7034267378138 0
          47.322877480901255 13.376690736606477 0 -32.1350217035443 -42.58571958176201 0
          -0.5025219679409361 28.59799073613067 0 -3.5320261053794297 38.30316610148137 0
          14.736889949280638 40.32409694969634 0 -49.402638529229115 19.356180838194604 0
          8.508964450503598 -39.46387075781778 0 49.03198966734128 -27.000797471280585 0
          -16.70921662991016 18.938285128010065 0 46.14207459237997 -27.3400906744995 0
          42.424140585792586 37.62461911345025 0 -6.825547086494495 -2.911259141055119 0
          6.210247997996007 33.76154121673389 0 -35.16911208657487 13.927818279591207 0
          49.5593687100304 13.93941034113417 0 -6.0481675260535965 -47.161165000275155 0
          -41.68490984500472 3.0367185203014984 0 28.200151364646487 23.664522522360798 0
          -30.983903256438072 -23.817273645282434 0 -4.775523168997552 -3.9973115200368454 0
          17.36371431475763 -32.304692769073746 0 -31.21691646176371 -40.35131875297581 0
          -17.61253928181918 -32.96735050248542 0 -47.52659271635095 33.064298464373394 0
          -25.51716157275273 -35.79649925661745 0 -34.4558032257712 -19.698927528483058 0
          -46.64276824331557 -9.071061809886274 0 28.312364537561464 -5.662808823633235 0
          -48.25117889494449 -21.421563451189467 0 45.139670111270334 -32.86849758057289 0
          <InformationKey name="L2_NORM_RANGE" location="vtkDataArray" length="2">
            <Value index="0">
              2.9839152875
            </Value>
            <Value index="1">
              65.61664054
            </Value>
          </InformationKey>
        </DataArray>
        <DataArray type="Float64" Name="force" NumberOfComponents="3" format="ascii" RangeMin="0.49999999999999994" RangeMax="0.5">
          -0.4104774614352169 -0.28549650375039626 0 0.0054893047778714 -0.49996986662503534 0
          -0.15499472127280275 -0.4753699994504977 0 -0.03013359522196217 0.49909114041325053 0
          -0.24045579841678943 0.4383845446725333 0 0.45314832497299024 0.21132107224357258 0
          0.47566507103287015 -0.15408679437023343 0 0.45196786639228226 0.21383415945261902 0
          0.4999949141788329 -0.0022551707920958424 0 -0.24955672810407958 -0.43326832270313337 0
          -0.3743787783944652 0.33142198220375774 0 -0.4879135888482733 -0.10927181620709935 0
          0.11652136012143616 -0.48623324920808386 0 -0.25706773454598125 0.4288544973011207 0
          0.4070436246322628 0.29037129273781453 0 0.487849518785095 0.10955750554458257 0
          -0.3680072944583098 -0.3384828374164262 0 -0.49506558773152687 0.07007184772815575 0
          0.4745085235884767 -0.15761237591599217 0 -0.49999130699042643 -0.002948378199141971 0
          0.45819174747997443 0.20015074953955914 0 0.4527883947475061 -0.21209118223532206 0
          -0.37238371224031314 -0.3336620608611708 0 0.3003260253789481 0.3997552732361181 0
          -0.46948490853214453 -0.17199976936194966 0 -0.27683618850565 0.41636729546599144 0
          0.4926049774307126 -0.08567576209458033 0 0.49984388435166266 -0.012493649436480786 0
          -0.484541373419502 -0.12336797576657697 0 -0.035910272349053564 -0.4987087851039089 0
          0.2825198257554899 0.41253187519885975 0 -0.49855259670499386 -0.03801721082230703 0
          -0.4984089038551934 0.039856800647625756 0 0.08132236920739237 0.4933423479354844 0
          0.4235337212006527 -0.2657427082836476 0 0.025459401853424816 0.4993513981729358 0
          0.32192964680244746 0.38257195729646915 0 -0.10858930827086234 -0.4880659403495143 0
          -0.4972061274275084 -0.052783206122215445 0 0.4688837543457545 -0.1736318660575591 0
          -0.09164169287754025 0.4915300602471212 0 0.20788288395773177 -0.45473586460429555 0
          0.2760353846498229 -0.41689862847126796 0 -0.49758269303075386 -0.04910665531537001 0
          0.061639209434795734 0.49618606173516544 0 -0.3672234429756102 0.33933308552090635 0
          0.3952460632162516 -0.30623610092876846 0 -0.23953278788883356 0.4388895573218883 0
          -0.1169259980990609 -0.4861361033378805 0 -0.4861691863590625 0.11678836515238646 0
          0.3559666715389815 -0.3511235234977271 0 0.37633315391401223 -0.3292010894045346 0
          0.4822126383630505 -0.13217780223224282 0 0.15341776948893673 0.4758812751149592 0
          -0.23137158618167517 0.44324619469068843 0 -0.49498575360617364 0.07063358781010873 0
          -0.4954372552460157 -0.0673938136203489 0 0.26879150425632686 0.4216054165207333 0
          -0.23205414315199152 -0.4428892351886587 0 0.356844558226737 -0.3502312968082163 0
          -0.4532110230365956 -0.21118657295889437 0 -0.24158214560256389 -0.43776485346137783 0
          -0.36718363003268506 -0.3393761656864257 0 0.4359381072489045 -0.24486315902610298 0
          0.3586130000178423 -0.34842031544989316 0 -0.4913928131578287 -0.09237479730335152 0
          0.48334081887274516 -0.12799083096622266 0 -0.492542967922014 -0.0860315334663625 0
          -0.3780851939147206 0.3271873868939145 0 0.4962749557599255 -0.060919358872890586 0
          -0.1943809529561539 0.4606691276044635 0 -0.03590198450151708 0.4987093818135496 0
          -0.046101195746568076 0.4978701434618636 0 -0.00454537110971142 0.4999793391746053 0
          0.07277376360831875 -0.4946756304188438 0 -0.44820676565044626 -0.22160933018527437 0
          -0.47225968299136006 -0.16422786554327534 0 0.32075616061866175 -0.3835563653821629 0
          -0.2779285025554806 0.4156389628839772 0 0.2606487425415597 -0.42668751213447026 0
          -0.35609532969723756 0.3509930429051489 0 0.4444852721367233 -0.22898218894390684 0
          -0.27554877245688764 -0.4172204141667835 0 -0.4738811742870497 -0.15948865996153727 0
          -0.4867839216883949 -0.11419900868950938 0 0.0689266406357713 0.4952263302881494 0
          -0.47806268544986036 -0.14647890216842796 0 0.23767857608720894 -0.43989645880497474 0
          0.48011081399244626 -0.13961950539774395 0 -0.09360048912160862 0.4911608172851287 0
          -0.23139608891542707 -0.44323340356367974 0 -0.4190248735551353 -0.27279691226643843 0
          -0.4801129970055528 -0.13961199843260624 0 0.16891736846767985 -0.4706027227183817 0
          0.21387659864965863 0.45194778520317236 0 0.497657187867444 0.04834587225262941 0
          -0.4919499781294429 0.08936005269940611 0 0.4808454501034911 -0.13706806015542436 0
          -0.46437311138451937 -0.18535806813586708 0 0.4345588679772893 -0.24730262890292296 0
          -0.29936663554384146 0.40047424077356186 0 0.27562930861528384 -0.4171672137551807 0
          -0.3649574252545329 -0.3417690415347506 0 0.44352095347296655 -0.23084445808905757 0
          -0.3806397825961296 0.3242118996970518 0 -0.47255208882872585 0.1633845872278288 0
          0.47677176837498314 0.15062762323223255 0 0.26229701994309224 -0.42567625412861954 0
          0.20206932521960272 -0.45734886881383496 0 -0.4646338507531183 -0.18470350493244292 0
          -0.16134909893229524 0.4732509569707561 0 -0.09737384716736469 -0.4904266855380391 0
          0.15959220481124498 -0.4738463128098452 0 0.44586514958913964 -0.22628360166360734 0
          -0.010909050981262535 -0.4998809784405566 0 0.06346053092058744 -0.4959564103984111 0
          -0.23015425562617212 -0.4438795091206201 0 -0.4436497365712116 -0.2305968586956348 0
          -0.42765033356681664 0.25906599969928595 0 0.19383625704562768 -0.46089858478253254 0
          0.4873742651480294 0.11165270113803039 0 0.2370077448820767 -0.4402582524676993 0
          0.06868771694596836 -0.49525952544171276 0 -0.04727358874897663 0.4977601910627171 0
          0.22413610071258885 -0.4469485522488648 0 -0.14413210921103925 -0.4787754537300101 0
          -0.48694984148258474 -0.11348943510338558 0 0.4289638005704432 -0.2568853008643372 0
          -0.44010487354910655 0.23729243620125134 0 -0.49464137424101173 0.07300623869891773 0
          0.23203798881488985 0.44289769896302356 0 0.31930764322824645 0.38476308161779615 0
          0.41274267375900237 0.282211773776839 0 -0.4782496880215517 0.14586718584825192 0
          -0.46590064278017684 0.18148440995583626 0 -0.4579573450771863 -0.20068649702920952 0
          0.26404258106071715 0.42459570815870784 0 0.411525381538854 0.2839839086098025 0
          -0.452005877469876 -0.21375379934094135 0 0.25781112963649383 0.4284080081365835 0
          0.11706780430536505 -0.48610197407038036 0 0.49975512892631035 -0.015646440868354785 0
          -0.3987289078552071 0.30168735147598374 0 0.44321130171837253 0.23143841951825056 0
          0.4997200564924625 0.016729170307284318 0 -0.39594776381267355 -0.30532829598932243 0
          0.2199148946145759 0.44904057625860494 0 -0.428846970415354 0.2570802908928891 0
          -0.4140422713653376 0.2803016188369809 0 0.3323457996953896 0.37355892363164345 0
          0.09558937419306157 -0.490777619234393 0 0.14412991018795865 0.4787761157255142 0
          0.26245807469287824 0.4255769719198955 0 0.06674104950983631 -0.495525612163817 0
          <InformationKey name="L2_NORM_RANGE" location="vtkDataArray" length="2">
            <Value index="0">
              0.5
            </Value>
            <Value index="1">
              0.5
            </Value>
          </InformationKey>
        </DataArray>
        <DataArray type="Float64" Name="radius" format="ascii" RangeMin="1" RangeMax="1">
          1 1 1 1 1 1
          1 1 1 1 1 1
          1 1 1 1 1 1
          1 1 1 1 1 1
          1 1 1 1 1 1
          1 1 1 1 1 1
          1 1 1 1 1 1
          1 1 1 1 1 1
          1 1 1 1 1 1
          1 1 1 1 1 1
          1 1 1 1 1 1
          1 1 1 1 1 1
          1 1 1 1 1 1
          1 1 1 1 1 1
          1 1 1 1 1 1
          1 1 1 1 1 1
          1 1 1 1 1 1
          1 1 1 1 1 1
          1 1 1 1 1 1
          1 1 1 1 1 1
          1 1 1 1 1 1
          1 1 1 1 1 1
          1 1 1 1 1 1
          1 1 1 1 1 1
          1 1 1 1 1 1
          1 1 1 1
        </DataArray>
      </PointData>
      <CellData>
      </CellData>
      <Points>
        <DataArray type="Float32" Name="Points" NumberOfComponents="3" format="ascii" RangeMin="1.779782490231565" RangeMax="67.98808763081779">
          -37.01799392700195 33.60084915161133 0 47.10309600830078 -27.768413543701172 0
          -19.133281707763672 4.67758846282959 0 -30.86170196533203 49.40909957885742 0
          49.53797149658203 46.56575393676758 0 22.84757423400879 48.19935607910156 0
          -39.10822677612305 29.80154037475586 0 -20.1087589263916 -49.53864669799805 0
          -38.246376037597656 13.612902641296387 0 37.70088195800781 0.17525950074195862 0
          29.746097564697266 -13.702898979187012 0 -28.582508087158203 18.219833374023438 0
          -10.166192054748535 23.902544021606445 0 -2.647644519805908 -8.014605522155762 0
          -32.71699523925781 -19.423795700073242 0 29.654951095581055 -18.714494705200195 0
          37.206321716308594 -35.36275863647461 0 49.17308807373047 31.94084930419922 0
          -37.492401123046875 26.261648178100586 0 -1.0149544477462769 15.875300407409668 0
          -37.466670989990234 -28.97505760192871 0 -45.04190444946289 -46.41562271118164 0
          -8.92066764831543 -4.0510945320129395 0 -1.2738234996795654 29.31374168395996 0
          42.10470962524414 30.800291061401367 0 20.97213363647461 -49.63851547241211 0
          20.564861297607422 14.274153709411621 0 -4.25230598449707 27.234838485717773 0
          7.366487503051758 37.724796295166016 0 31.067041397094727 -47.90183639526367 0
          32.02582931518555 32.24137878417969 0 44.017398834228516 -8.502345085144043 0
          -7.833903789520264 8.1868257522583 0 -34.239994049072266 26.059715270996094 0
          -26.419851303100586 30.598203659057617 0 48.961151123046875 -16.934104919433594 0
          -20.105974197387695 -48.423667907714844 0 -28.59371566772461 40.564697265625 0
          34.93109130859375 45.413116455078125 0 27.914627075195312 48.81536865234375 0
          -43.16044616699219 29.212135314941406 0 9.339324951171875 23.36813735961914 0
          19.35302734375 17.667373657226562 0 -10.630889892578125 6.145731449127197 0
          -29.28031349182129 2.519148111343384 0 -9.417670249938965 -14.97286319732666 0
          9.702489852905273 -14.209467887878418 0 46.79351043701172 -34.40674591064453 0
          -10.67440128326416 -11.473786354064941 0 22.589580535888672 -11.245880126953125 0
          42.87545394897461 -6.091200828552246 0 36.07795333862305 11.875802993774414 0
          -37.696502685546875 -2.5870938301086426 0 -15.957892417907715 3.0637452602386475 0
          21.510820388793945 48.87294006347656 0 21.97991943359375 41.34053421020508 0
          0.45285359025001526 6.003547191619873 0 0.5560315251350403 -3.7370898723602295 0
          4.775943756103516 -5.228292465209961 0 35.30436706542969 10.32089614868164 0
          0.08776821196079254 47.60502624511719 0 -46.885494232177734 47.85878372192383 0
          -13.619575500488281 17.75519371032715 0 -14.940216064453125 35.51221466064453 0
          -45.28761672973633 16.088781356811523 0 24.926654815673828 -36.677650451660156 0
          48.594478607177734 -40.33041763305664 0 -21.85250473022461 30.301513671875 0
          -42.57984924316406 12.678406715393066 0 -49.41167068481445 18.06099510192871 0
          3.3043293952941895 -6.038044452667236 0 -29.78536605834961 -36.03278732299805 0
          -11.742786407470703 26.366798400878906 0 -45.785770416259766 -24.657413482666016 0
          0.5275108218193054 32.82115936279297 0 48.36919021606445 32.37822341918945 0
          -19.58248519897461 -44.94489669799805 0 -25.090402603149414 4.121430397033691 0
          38.78590393066406 -15.696669578552246 0 -47.011497497558594 -33.641361236572266 0
          37.91509246826172 -29.01519203186035 0 -22.912986755371094 -0.7408867478370667 0
          -27.454944610595703 -0.856205940246582 0 45.3790168762207 15.325745582580566 0
          25.62317657470703 -6.532001972198486 0 5.361157417297363 -44.525970458984375 0
          -17.67757797241211 -9.822884559631348 0 40.715415954589844 30.86142349243164 0
          -24.182954788208008 -36.76418685913086 0 -0.973342776298523 -11.914484977722168 0
          21.498497009277344 -21.395166397094727 0 12.265113830566406 31.025272369384766 0
          -18.87920570373535 -11.891307830810547 0 -15.6769380569458 31.459632873535156 0
          17.073530197143555 -12.041574478149414 0 -4.2844438552856445 -19.852519989013672 0
          40.846073150634766 -1.0619655847549438 0 25.676733016967773 -39.07114791870117 0
          -10.609175682067871 36.93048095703125 0 -14.144763946533203 41.721527099609375 0
          4.615867614746094 -35.81557083129883 0 -29.91304588317871 45.07536315917969 0
          48.95356750488281 -25.93595314025879 0 -48.28830337524414 -11.229387283325195 0
          28.034685134887695 -2.126024007797241 0 4.157384395599365 -48.16889572143555 0
          40.10503005981445 -30.33256721496582 0 38.827491760253906 -5.67938756942749 0
          -34.94346618652344 -25.975908279418945 0 29.92660903930664 -2.8341758251190186 0
          -41.2501220703125 14.298375129699707 0 13.444461822509766 8.292058944702148 0
          22.803787231445312 -14.660638809204102 0 17.994260787963867 21.087081909179688 0
          -33.53167724609375 -36.80661392211914 0 -5.204748153686523 -45.90827178955078 0
          29.72966957092285 -33.538909912109375 0 33.440025329589844 -17.334562301635742 0
          15.734137535095215 -8.244232177734375 0 27.855445861816406 -38.84527587890625 0