<?xml version="1.0"?>
<VTKFile type="PolyData" version="0.1" byte_order="LittleEndian" header_type="UInt32" compressor="vtkZLibDataCompressor">
  <PolyData>
    <Piece NumberOfPoints="154" NumberOfVerts="0" NumberOfLines="0" NumberOfStrips="0" NumberOfPolys="0">
      <PointData>
        <DataArray type="Int32" Name="id" format="ascii" RangeMin="0" RangeMax="153">
          0 1 2 3 4 5
          6 7 8 9 10 11
          12 13 14 15 16 17
          18 19 20 21 22 23
          24 25 26 27 28 29
          30 31 32 33 34 35
          36 37 38 39 40 41
          42 43 44 45 46 47
          48 49 50 51 52 53
          54 55 56 57 58 59
          60 61 62 63 64 65
          66 67 68 69 70 71
          72 73 74 75 76 77
          78 79 80 81 82 83
          84 85 86 87 88 89
          90 91 92 93 94 95
          96 97 98 99 100 101
          102 103 104 105 106 107
          108 109 110 111 112 113
          114 115 116 117 118 119
          120 121 122 123 124 125
          126 127 128 129 130 131
          132 133 134 135 136 137
          138 139 140 141 142 143
          144 145 146 147 148 149
          150 151 152 153
        </DataArray>
        <DataArray type="Float64" Name="director" NumberOfComponents="3" format="ascii" RangeMin="0.9999999999999999" RangeMax="1">
          -0.9989676081014714 -0.04542816267498548 0 0.556675908093563 -0.8307297595176225 0
          -0.48107011828425705 -0.8766821210073643 0 0.3655165299789773 0.9308048486724418 0
          -0.9164361323450164 0.40018097822423737 0 -0.09580473916054777 0.9954001466517771 0
          0.7856057980932649 0.6187273470618899 0 0.7654255066048615 0.6435245091204306 0
          0.9943013689519181 -0.10660575828885406 0 -0.5865776543933701 -0.8098929900711402 0
          -0.6893387185130853 0.7244391838924351 0 -0.9743687164547171 0.2249568945251226 0
          -0.6732767942044973 -0.7393905317122441 0 -0.1691036766334218 0.9855982683370842 0
          0.8291316623279791 0.5590533843250054 0 0.8625540902880446 -0.5059648617516476 0
          -0.5720159284840773 -0.8202425114321367 0 -0.8255712893912526 0.5642978345987735 0
          0.9292636832324134 -0.36941711793760845 0 -0.9470332674929149 -0.3211354702640196 0
          0.45879307972745165 0.8885431390732811 0 0.5392768664430437 -0.8421285301658955 0
          -0.7688515077429157 -0.6394273680735328 0 0.47316987971890256 0.880971205503789 0
          -0.7204035986769528 -0.6935550843395901 0 -0.7959218805553667 0.6053993393233995 0
          0.9344123560086504 -0.3561931343223269 0 0.7906728837786847 0.6122388348162003 0
          -0.7692277641831032 -0.6389746840132746 0 -0.08461520778785359 -0.9964137025407762 0
          0.5121817141008503 0.8588771109656578 0 -0.9828875989399456 -0.1842063187028844 0
          -0.9545542649522218 -0.2980371709393366 0 0.2208188687511459 0.9753148349140723 0
          0.9890321250433091 0.14770056070413662 0 0.4367854831230004 0.8995656961739966 0
          0.7501428557602382 0.6612758092897959 0 -0.9281502083522188 -0.3722058445749242 0
          -0.6616953632642899 -0.7497727964087116 0 0.9993450441247265 -0.03618677636027339 0
          0.18068546481895842 0.9835409309241567 0 0.9223881743081938 -0.3862642306716961 0
          -0.018457017420142403 -0.9998296547452233 0 -0.9064610764948793 -0.4222893756652475 0
          0.9132734901323687 0.40734694330686 0 -0.48729020860240646 0.873240088750066 0
          -0.006058151332219024 -0.9999816492328426 0 -0.9985821103711936 -0.05323315551996992 0
          -0.8675443318491082 -0.49735986194754844 0 -0.5156444058968724 0.856802688293671 0
          0.8468164798312003 -0.5318851844959532 0 0.9528646980145765 0.303395562389416 0
          0.9970213317776164 -0.07712628592372488 0 -0.517185011391891 0.8558736261806235 0
          -0.5992158852877824 0.8005874860493256 0 -0.9271792692348638 0.37461794231070134 0
          -0.9403135245592684 -0.340309382078905 0 -0.6734548975276955 0.7392283145253307 0
          -0.21558387289340777 -0.9764853269498108 0 0.8270809977420208 -0.5620827547381821 0
          -0.9844621361432309 0.17559698887027284 0 -0.3126446110684582 -0.9498701738500123 0
          -0.7574751788588261 -0.6528639624093134 0 0.9929239034428412 0.118752355647504 0
          0.4092498492137684 -0.9124223588440322 0 -0.9994851024767023 0.032086288771623186 0
          0.8965358540705312 -0.44297117554760074 0 -0.9464475947207801 -0.3228574769882989 0
          -0.7710635684504936 0.6367581749835575 0 0.9208548954536806 -0.3899054520252198 0
          0.6758112820090216 0.7370746984596084 0 -0.20105636123815993 0.9795796749655796 0
          0.26922173904685287 0.9630782186430074 0 -0.34932437712013864 0.9370018567482282 0
          0.02788222449824404 -0.999611215201705 0 -0.9921938794379409 0.1247048740261939 0
          -0.854152319247155 0.5200228990387888 0 -0.14951785621373453 -0.9887590255837106 0
          -0.5734249039362013 0.8192581275433026 0 0.044048243642427584 -0.9990294050887678 0
          0.3064180430000712 0.9518970442878822 0 0.941566246876589 -0.33682785327632014 0
          -0.8316173238574475 -0.5553491034116984 0 -0.9523030999542874 -0.3051537412804478 0
          -0.7685631295778167 0.6397739568422212 0 -0.18496718634673578 0.9827446972510062 0
          -0.9111546993556987 0.4120644535045777 0 -0.4445571610544442 -0.8957504845408754 0
          0.8925008341146424 0.4510457416988521 0 0.5003623205790181 0.8658161168197205 0
          0.9231038215876203 -0.38455082183026335 0 0.18356458131611553 -0.9830076523029916 0
          -0.9835109696747969 -0.18084847947754676 0 0.14911610537977354 -0.9888196939363456 0
          -0.001980772456682844 0.9999980382683132 0 0.9985565007503209 0.05371140297250145 0
          -0.6652610337858095 0.7466108470456588 0 0.9688147999456972 -0.24778596289172375 0
          -0.8742633853316923 -0.4854518854308517 0 0.6979894016267952 -0.7161080890596533 0
          -0.6457653393081683 0.763535936644901 0 0.6538144490212581 -0.7566549188705699 0
          -0.9711490543439856 -0.2384732988130589 0 0.9914963631828346 0.13013439896972848 0
          0.0070571589673042905 0.9999750979435988 0 -0.6553210584527691 0.7553504553174919 0
          0.9396945915401913 -0.3420147286742385 0 0.9542812689497561 -0.29891011982139953 0
          -0.9365494471011823 -0.3505354948282269 0 -0.9997763927123293 0.021146266221775466 0
          0.2449171907509803 0.9695440008966317 0 0.5255512223245002 -0.8507619600765092 0
          0.48854866912069145 -0.8725366455916915 0 0.9989752544453434 -0.04525970620608688 0
          -0.6032869665328746 -0.7975241914898645 0 0.09158318898265387 -0.9957974289461524 0
          -0.9996083591693288 0.027984429220589174 0 -0.885019184315559 -0.465554554690879 0
          -0.8038090694267847 0.5948873674127284 0 0.50730849217396 -0.8617645233868607 0
          0.9898891403005239 0.14184318776412858 0 -0.5390283659943503 -0.8422876115991856 0
          0.9761711230898943 -0.21700216230585012 0 -0.2998233125495549 0.953994749069308 0
          0.3676655132599335 -0.9299581013999016 0 -0.871639754974039 -0.4901470570643031 0
          -0.9226756618307848 0.385577000176519 0 0.7688766699690953 -0.6393971116428623 0
          -0.7302864760497977 0.6831410270937972 0 -0.6960165858568602 0.7180257044230102 0
          0.9629423523774451 0.2697072968938595 0 0.6347260052006785 0.7727372763895813 0
          0.8846438358231683 0.46626739510721865 0 -0.8023214230879652 0.5968922298489924 0
          -0.8061842377891353 0.5916645795891038 0 -0.9858341606199696 0.16772300901999074 0
          0.7883036953632072 0.6152863429954478 0 0.9426379915304159 0.33381674152669966 0
          -0.9358605178777577 -0.3523706728398024 0 0.04858854213723404 0.9988188792633919 0
          0.9271318994658492 -0.3747351611376313 0 0.9034438126673192 0.4287065165741452 0
          -0.557539190671386 0.8301506193851185 0 0.9163804390205617 0.4003084947643289 0
          0.7159565545554737 -0.6981448359681929 0 -0.5597533149771169 -0.8286592945065714 0
          0.2384934948405364 0.9711440948277177 0 -0.9458515164405036 0.3245996131347045 0
          -0.36599846375479506 0.9306154547014196 0 0.5721118322095418 0.8201756223186843 0
          0.26056309231059255 -0.965456821885651 0 -0.057744094631937755 0.9983314176840964 0
          0.6078872916048216 0.7940233250386003 0 0.3072804962876374 -0.9516189870957931 0
          <InformationKey name="L2_NORM_RANGE" location="vtkDataArray" length="2">
            <Value index="0">
              1
            </Value>
            <Value index="1">
              1
            </Value>
          </InformationKey>
        </DataArray>
        <DataArray type="Float64" Name="velocity" NumberOfComponents="3" format="ascii" RangeMin="2.98391528750295" RangeMax="65.61664053985334">
          20.472372037415383 -30.489259884928693 0 -7.778161120144524 43.605506408926914 0
          -35.778279556590725 14.318100471258902 0 -2.7267860528004704 -6.306708942777526 0
          -25.56803597993237 0.5919415230237348 0 40.69440930810454 -42.34960265147567 0
          21.390392053252754 11.720491675449018 0 -31.091580543867785 -10.301819378431787 0
          -22.233594277397 35.80993014386058 0 40.8936574712134 11.727908496204755 0
          -31.918129728714472 1.502371966558826 0 32.46317064138093 -14.067556233339687 0
          31.61170207931397 -20.66117562390716 0 -32.788218903188394 -0.7210412736466054 0
          -30.467523066969363 36.43074923190564 0 -29.58028331655805 11.627227611362315 0
          37.80505508071815 -10.753091333426255 0 44.65772551607054 -33.330173144632525 0
          47.18774005931614 6.396489460552942 0 9.836891189866492 -36.87781496106794 0
          6.677739541459459 5.438027088135769 0 -18.951003944933063 -37.93510690561732 0
          23.77908201111339 -25.727634747998636 0 32.285914726045576 -31.45240287607238 0
          -18.732306147503376 38.172541468590836 0 17.42129460906331 23.929755673071398 0
          -43.74567596165927 -36.843843838172035 0 -41.00470913383489 -49.1685554695042 0
          -4.3489588147394045 13.430332075080756 0 2.9762992276979077 -0.21305715242312573 0
          -16.420210149222868 -24.717665071237764 0 -26.63245586108499 -32.68369682188443 0
          9.59810303037343 22.68931438280859 0 37.757309281314306 20.71597266757422 0
          -26.523439665569285 -2.200425364398683 0 -48.17882370239545 24.733119867345934 0
          15.472358145094617 -42.19330576503555 0 -2.7230899171649696 49.647506705142575 0
          3.209752212846098 39.943600631846664 0 27.290092728339346 -29.624030405099575 0
          40.710862227344634 -12.518743865476708 0 34.808888796398136 -17.330075407408792 0
          -17.326333983387784 15.921061981020685 0 8.676498234140595 -45.101679767889145 0
          26.99656655139428 -0.8247828969564566 0 -1.181598492863479 -7.087342925864128 0
          -10.527228461045638 27.645380145270124 0 47.47543864880045 24.850515939083976 0
          13.45020038299144 -42.781974126121774 0 13.33632968921519 2.89206325620421 0
          -20.383234879262602 -17.467213088655853 0 13.111992425538233 49.45054225750374 0
          1.6047826830209004 22.445391370448775 0 -25.442525168919026 -16.766088433362327 0
          24.860911549332883 18.296648546241826 0 18.127137052491975 -42.11576276898946 0
          -4.106371249565804 19.81468592825003 0 -43.2115168522386 -43.085994704941484 0
          2.7042817825837204 -23.795120132132308 0 -1.6624837545658195 -36.91945356486498 0
          -40.55592314206473 -37.96183180819797 0 46.98372058379586 25.62816454897687 0
          -23.182362140209666 22.4905983535036 0 -8.42374893276238 -2.5281598168396826 0
          -44.45585735866184 11.374414308737222 0 -0.9380815156004232 40.44748670579848 0
          43.5214270198436 41.82766196839604 0 -19.617472876146607 29.010177679462174 0
          -27.377259211045168 -5.104813753149479 0 1.0108912986547693 -26.93680745999526 0
          21.18807799653547 48.4452609761332 0 15.521324819791857 -22.733301715898534 0
          -3.0984436752635744 -49.699879474370995 0 -5.357606698271908 47.09441502974741 0
          -19.533649987483585 -28.48909553641595 0 -25.241492794096537 30.645102659141713 0
          -1.3628901407151872 -9.249808436218693 0 -28.437070584076316 4.0252086974848424 0
          22.302423751473526 -21.630608392707323 0 4.286209731170565 25.592468486596516 0
          -16.80227135673981 30.176297340482108 0 35.70724318896097 -48.51082997011254 0
          38.494266527440914 9.308694076898924 0 -41.37827709570729 42.48759424258512 0
          41.371957205314274 48.07567751376408 0 40.00221093710812 44.971458396046486 0
          43.45219546574209 -49.16757290067578 0 27.77940311086799 -47.40411222574361 0
          8.787704962513757 14.978077069606684 0 -17.176354508003442 -38.89206379839693 0
          -37.572734230027905 47.39150589914381 0 3.322947059262674 16.230028184641725 0
          20.82576325094061 -43.12614201683975 0 -29.404442159877867 -6.6570323329381935 0
          -48.88074135310182 -43.07374742736768 0 -15.693819004659524 -18.776991949103287 0
          49.2742614956165 -23.093566379026992 0 35.70662412955289 -14.438908494432013 0
          24.676827977366614 34.48562696853686 0 -28.28613766609157 46.49521791482232 0
          21.219265309149932 48.266786794162286 0 25.989900495501132 -30.673962513745963 0
          -14.741048879365302 -30.369965831724773 0 33.206792723445574 45.25947670903301 0
          26.73700517552618 36.1968809297727 0 -4.433626259916984 -16.731616061562868 0
          33.82599634129042 5.430878965379037 0 -37.91344272052366 -28.781627030961573 0
          -0.8760744559602713 -9.034520229977083 0 25.951148963832622 -14.29357740625877 0
          27.17860558051683 48.15404052238152 0 34.61617221348607 33.462162550860555 0
          -13.28055184508198 -44.93740558320786 0 47.55616001461492 34.25892934866374 0
          36.946038841117556 -42.45015674570037 0 -46.76239316488481 11.393180618063838 0
          23.568028568935404 11.552780427737098 0 16.263007945057282 45.12644264060411 0
          -23.411248530157515 41.93857265065735 0 -38.160345232049345 -18.69342940760771 0
          37.21153998486223 -26.635630373860984 0 30.80584946405935 5.653176675427417 0
          44.35923105765637 0.370346282237378 0 16.64168251311186 -34.7034267378138 0
          47.322877480901255 13.376690736606477 0 -32.1350217035443 -42.58571958176201 0
          -0.5025219679409361 28.59799073613067 0 -3.5320261053794297 38.30316610148137 0
          14.736889949280638 40.32409694969634 0 -49.402638529229115 19.356180838194604 0
          8.508964450503598 -39.46387075781778 0 49.03198966734128 -27.000797471280585 0
          -16.70921662991016 18.938285128010065 0 46.14207459237997 -27.3400906744995 0
          42.424140585792586 37.62461911345025 0 -6.825547086494495 -2.911259141055119 0
          6.210247997996007 33.76154121673389 0 -35.16911208657487 13.927818279591207 0
          49.5593687100304 13.93941034113417 0 -6.0481675260535965 -47.161165000275155 0
          -41.68490984500472 3.0367185203014984 0 28.200151364646487 23.664522522360798 0
          -30.983903256438072 -23.817273645282434 0 -4.775523168997552 -3.9973115200368454 0
          17.36371431475763 -32.304692769073746 0 -31.21691646176371 -40.35131875297581 0
          -17.61253928181918 -32.96735050248542 0 -47.52659271635095 33.064298464373394 0
          -25.51716157275273 -35.79649925661745 0 -34.4558032257712 -19.698927528483058 0
          -46.64276824331557 -9.071061809886274 0 28.312364537561464 -5.662808823633235 0
          -48.25117889494449 -21.421563451189467 0 45.139670111270334 -32.86849758057289 0
          <InformationKey name="L2_NORM_RANGE" location="vtkDataArray" length="2">
            <Value index="0">
              2.9839152875
            </Value>
            <Value index="1">
              65.61664054
            </Value>
          </InformationKey>
        </DataArray>
        <DataArray type="Float64" Name="force" NumberOfComponents="3" format="ascii" RangeMin="0.49999999999999994" RangeMax="0.5">
          -0.4994838040507357 -0.02271408133749274 0 0.2783379540467815 -0.41536487975881126 0
          -0.24053505914212853 -0.43834106050368216 0 0.18275826498948866 0.4654024243362209 0
          -0.4582180661725082 0.20009048911211869 0 -0.047902369580273885 0.49770007332588856 0
          0.39280289904663246 0.30936367353094496 0 0.38271275330243076 0.3217622545602153 0
          0.49715068447595906 -0.05330287914442703 0 -0.29328882719668503 -0.4049464950355701 0
          -0.34466935925654263 0.36221959194621756 0 -0.48718435822735856 0.1124784472625613 0
          -0.33663839710224863 -0.36969526585612206 0 -0.0845518383167109 0.4927991341685421 0
          0.41456583116398954 0.2795266921625027 0 0.4312770451440223 -0.2529824308758238 0
          -0.28600796424203867 -0.41012125571606833 0 -0.4127856446956263 0.28214891729938674 0
          0.4646318416162067 -0.18470855896880423 0 -0.47351663374645747 -0.1605677351320098 0
          0.22939653986372582 0.44427156953664054 0 0.26963843322152187 -0.42106426508294775 0
          -0.38442575387145783 -0.3197136840367664 0 0.23658493985945128 0.4404856027518945 0
          -0.3602017993384764 -0.34677754216979506 0 -0.39796094027768336 0.30269966966169976 0
          0.4672061780043252 -0.17809656716116345 0 0.39533644188934236 0.30611941740810017 0
          -0.3846138820915516 -0.3194873420066373 0 -0.04230760389392679 -0.4982068512703881 0
          0.25609085705042517 0.4294385554828289 0 -0.4914437994699728 -0.0921031593514422 0
          -0.4772771324761109 -0.1490185854696683 0 0.11040943437557295 0.48765741745703617 0
          0.49451606252165453 0.07385028035206831 0 0.2183927415615002 0.4497828480869983 0
          0.3750714278801191 0.33063790464489795 0 -0.4640751041761094 -0.1861029222874621 0
          -0.33084768163214495 -0.3748863982043558 0 0.49967252206236323 -0.018093388180136696 0
          0.09034273240947921 0.49177046546207837 0 0.4611940871540969 -0.19313211533584804 0
          -0.009228508710071201 -0.49991482737261167 0 -0.45323053824743964 -0.21114468783262375 0
          0.45663674506618435 0.20367347165343 0 -0.24364510430120323 0.436620044375033 0
          -0.003029075666109512 -0.4999908246164213 0 -0.4992910551855968 -0.02661657775998496 0
          -0.4337721659245541 -0.24867993097377422 0 -0.2578222029484362 0.4284013441468355 0
          0.42340823991560017 -0.2659425922479766 0 0.47643234900728826 0.151697781194708 0
          0.4985106658888082 -0.03856314296186244 0 -0.2585925056959455 0.42793681309031173 0
          -0.2996079426438912 0.4002937430246628 0 -0.4635896346174319 0.18730897115535067 0
          -0.4701567622796342 -0.1701546910394525 0 -0.33672744876384775 0.36961415726266533 0
          -0.10779193644670389 -0.4882426634749054 0 0.4135404988710104 -0.28104137736909107 0
          -0.49223106807161543 0.08779849443513642 0 -0.1563223055342291 -0.47493508692500613 0
          -0.37873758942941305 -0.3264319812046567 0 0.4964619517214206 0.059376177823752 0
          0.2046249246068842 -0.4562111794220161 0 -0.49974255123835115 0.016043144385811593 0
          0.4482679270352656 -0.22148558777380037 0 -0.47322379736039005 -0.16142873849414946 0
          -0.3855317842252468 0.31837908749177873 0 0.4604274477268403 -0.1949527260126099 0
          0.3379056410045108 0.3685373492298042 0 -0.10052818061907996 0.4897898374827898 0
          0.13461086952342644 0.4815391093215037 0 -0.17466218856006932 0.4685009283741141 0
          0.01394111224912202 -0.4998056076008525 0 -0.49609693971897045 0.06235243701309695 0
          -0.4270761596235775 0.2600114495193944 0 -0.07475892810686727 -0.4943795127918553 0
          -0.28671245196810063 0.4096290637716513 0 0.022024121821213792 -0.4995147025443839 0
          0.1532090215000356 0.4759485221439411 0 0.4707831234382945 -0.16841392663816007 0
          -0.41580866192872373 -0.2776745517058492 0 -0.4761515499771437 -0.1525768706402239 0
          -0.38428156478890835 0.3198869784211106 0 -0.09248359317336789 0.4913723486255031 0
          -0.45557734967784935 0.20603222675228886 0 -0.2222785805272221 -0.4478752422704377 0
          0.4462504170573212 0.22552287084942604 0 0.25018116028950904 0.43290805840986024 0
          0.46155191079381014 -0.19227541091513167 0 0.09178229065805776 -0.4915038261514958 0
          -0.49175548483739845 -0.09042423973877338 0 0.07455805268988677 -0.4944098469681728 0
          -0.000990386228341422 0.4999990191341566 0 0.49927825037516044 0.026855701486250726 0
          -0.33263051689290474 0.3733054235228294 0 0.4844073999728486 -0.12389298144586187 0
          -0.43713169266584617 -0.24272594271542586 0 0.3489947008133976 -0.35805404452982664 0
          -0.32288266965408413 0.3817679683224505 0 0.32690722451062904 -0.37832745943528495 0
          -0.4855745271719928 -0.11923664940652945 0 0.4957481815914173 0.06506719948486424 0
          0.0035285794836521452 0.4999875489717994 0 -0.32766052922638456 0.37767522765874595 0
          0.46984729577009565 -0.17100736433711924 0 0.47714063447487803 -0.14945505991069977 0
          -0.46827472355059113 -0.17526774741411344 0 -0.49988819635616466 0.010573133110887733 0
          0.12245859537549016 0.48477200044831587 0 0.2627756111622501 -0.4253809800382546 0
          0.24427433456034572 -0.43626832279584576 0 0.4994876272226717 -0.02262985310304344 0
          -0.3016434832664373 -0.39876209574493227 0 0.045791594491326935 -0.4978987144730762 0
          -0.4998041795846644 0.013992214610294587 0 -0.4425095921577795 -0.2327772773454395 0
          -0.4019045347133923 0.2974436837063642 0 0.25365424608698 -0.43088226169343036 0
          0.49494457015026194 0.07092159388206429 0 -0.26951418299717517 -0.4211438057995928 0
          0.48808556154494714 -0.10850108115292506 0 -0.14991165627477746 0.476997374534654 0
          0.18383275662996676 -0.4649790506999508 0 -0.4358198774870195 -0.24507352853215156 0
          -0.4613378309153924 0.1927885000882595 0 0.38443833498454766 -0.31969855582143114 0
          -0.36514323802489884 0.3415705135468986 0 -0.3480082929284301 0.3590128522115051 0
          0.48147117618872254 0.13485364844692976 0 0.31736300260033923 0.38636863819479067 0
          0.44232191791158415 0.23313369755360933 0 -0.4011607115439826 0.2984461149244962 0
          -0.40309211889456764 0.2958322897945519 0 -0.4929170803099848 0.08386150450999537 0
          0.3941518476816036 0.3076431714977239 0 0.47131899576520797 0.16690837076334983 0
          -0.46793025893887885 -0.1761853364199012 0 0.02429427106861702 0.49940943963169593 0
          0.4635659497329246 -0.18736758056881564 0 0.4517219063336596 0.2143532582870726 0
          -0.278769595335693 0.41507530969255924 0 0.4581902195102808 0.20015424738216445 0
          0.35797827727773684 -0.34907241798409644 0 -0.27987665748855844 -0.4143296472532857 0
          0.1192467474202682 0.48557204741385884 0 -0.4729257582202518 0.16229980656735224 0
          -0.18299923187739753 0.4653077273507098 0 0.2860559161047709 0.4100878111593422 0
          0.13028154615529627 -0.4827284109428255 0 -0.028872047315968877 0.4991657088420482 0
          0.3039436458024108 0.39701166251930015 0 0.1536402481438187 -0.47580949354789653 0
          <InformationKey name="L2_NORM_RANGE" location="vtkDataArray" length="2">
            <Value index="0">
              0.5
            </Value>
            <Value index="1">
              0.5
            </Value>
          </InformationKey>
        </DataArray>
        <DataArray type="Float64" Name="radius" format="ascii" RangeMin="1" RangeMax="1">
          1 1 1 1 1 1
          1 1 1 1 1 1
          1 1 1 1 1 1
          1 1 1 1 1 1
          1 1 1 1 1 1
          1 1 1 1 1 1
          1 1 1 1 1 1
          1 1 1 1 1 1
          1 1 1 1 1 1
          1 1 1 1 1 1
          1 1 1 1 1 1
          1 1 1 1 1 1
          1 1 1 1 1 1
          1 1 1 1 1 1
          1 1 1 1 1 1
          1 1 1 1 1 1
          1 1 1 1 1 1
          1 1 1 1 1 1
          1 1 1 1 1 1
          1 1 1 1 1 1
          1 1 1 1 1 1
          1 1 1 1 1 1
          1 1 1 1 1 1
          1 1 1 1 1 1
          1 1 1 1 1 1
          1 1 1 1
        </DataArray>
      </PointData>
      <CellData>
      </CellData>
      <Points>
        <DataArray type="Float32" Name="Points" NumberOfComponents="3" format="ascii" RangeMin="2.5934729685306053" RangeMax="67.42055904616852">
          -37.697845458984375 34.104129791259766 0 46.639930725097656 -28.24629783630371 0
          -20.017499923706055 4.608328819274902 0 -31.376850128173828 49.718727111816406 0
          48.824520111083984 46.49406433105469 0 22.08440399169922 48.60762023925781 0
          -40.17635726928711 29.382843017578125 0 -19.314476013183594 -49.945404052734375 0
          -39.20115661621094 13.579285621643066 0 37.77164077758789 0.5521005988121033 0
          29.314912796020508 -13.662771224975586 0 -28.96508026123047 17.891138076782227 0
          -10.657661437988281 23.573726654052734 0 -3.2399742603302 -7.331851959228516 0
          -32.32756805419922 -19.57246971130371 0 28.544588088989258 -18.395030975341797 0
          36.635498046875 -34.95244216918945 0 48.76657485961914 31.142162322998047 0
          -37.9411735534668 25.9904727935791 0 -1.3275831937789917 15.21798038482666 0
          -38.342464447021484 -27.97658348083496 0 -45.14845657348633 -45.843177795410156 0
          -9.225852966308594 -4.470170974731445 0 -1.7215886116027832 29.514787673950195 0
          41.65446853637695 30.336091995239258 0 20.932466506958008 -50.35834884643555 0
          20.83333969116211 14.604830741882324 0 -4.457921981811523 27.269527435302734 0
          7.432510852813721 37.67247009277344 0 30.690214157104492 -47.82456970214844 0
          32.77216339111328 32.57239532470703 0 43.62512969970703 -8.850895881652832 0
          -7.943853378295898 8.049418449401855 0 -34.12339401245117 26.588973999023438 0
          -26.730113983154297 31.42069435119629 0 49.470909118652344 -17.445158004760742 0
          -20.59821319580078 -48.6414680480957 0 -29.402387619018555 40.564369201660156 0
          34.14153289794922 45.436214447021484 0 27.5401554107666 49.43791198730469 0
          -42.72331619262695 29.421119689941406 0 9.346748352050781 23.624982833862305 0
          19.36998176574707 18.656314849853516 0 -10.877310752868652 6.0935492515563965 0
          -29.732913970947266 2.523993492126465 0 -9.686542510986328 -14.750093460083008 0
          8.823344230651855 -13.442367553710938 0 46.60756301879883 -35.2402229309082 0
          -11.224324226379395 -11.831233978271484 0 22.241374969482422 -11.666425704956055 0
          42.117835998535156 -6.320890426635742 0 35.029632568359375 12.285544395446777 0
          -36.850120544433594 -2.4033241271972656 0 -15.296185493469238 4.111128330230713 0
          21.74923324584961 48.20109939575195 0 21.445096969604492 41.709808349609375 0
          1.2119510173797607 6.070184707641602 0 0.9165784120559692 -3.9007065296173096 0
          4.7659759521484375 -5.89073371887207 0 35.09067916870117 10.624238967895508 0
          1.1296486854553223 47.99330520629883 0 -47.06645584106445 47.63559341430664 0
          -14.306339263916016 17.14495849609375 0 -14.960709571838379 35.74298095703125 0
          -45.38119125366211 15.322412490844727 0 24.24982261657715 -36.0770149230957 0
          48.09861373901367 -40.3253059387207 0 -21.791778564453125 30.713993072509766 0
          -42.258201599121094 13.528141975402832 0 -48.756004333496094 18.85677146911621 0
          3.303966760635376 -6.0527849197387695 0 -29.867393493652344 -34.658267974853516 0
          -11.319032669067383 26.582786560058594 0 -46.82508850097656 -24.782670974731445 0
          1.2782845497131348 33.09169387817383 0 47.23575973510742 32.56249237060547 0
          -19.312950134277344 -43.939598083496094 0 -24.33906364440918 3.6094939708709717 0
          39.33241271972656 -15.301541328430176 0 -47.08461380004883 -33.3435173034668 0
          38.40219497680664 -29.59140968322754 0 -23.350072860717773 -0.23475772142410278 0
          -27.394994735717773 -0.7134425044059753 0 44.489830017089844 15.558905601501465 0
          26.57183265686035 -6.667532444000244 0 4.9009599685668945 -44.59012222290039 0
          -16.974836349487305 -8.595492362976074 0 40.24998474121094 31.239810943603516 0
          -24.31746482849121 -36.387062072753906 0 -1.6079384088516235 -11.693296432495117 0
          21.965723037719727 -21.113113403320312 0 11.668814659118652 31.542766571044922 0
          -18.674272537231445 -12.03857421875 0 -15.105539321899414 31.30826187133789 0
          18.273160934448242 -12.153624534606934 0 -4.351710319519043 -18.754127502441406 0
          40.71419906616211 -1.4587337970733643 0 26.027557373046875 -38.00376510620117 0
          -9.574110984802246 37.4535026550293 0 -12.849976539611816 41.90995407104492 0
          5.050204277038574 -35.84117126464844 0 -29.410736083984375 45.042518615722656 0
          49.44757843017578 -26.665494918823242 0 -47.79479217529297 -11.286641120910645 0
          28.300600051879883 -3.180040121078491 0 4.10872220993042 -48.564857482910156 0
          39.72262191772461 -29.501522064208984 0 39.12698745727539 -5.6458048820495605 0
          -34.67522048950195 -26.158594131469727 0 29.159282684326172 -2.6727375984191895 0
          -40.682003021240234 15.435224533081055 0 14.15166187286377 8.122066497802734 0
          21.564918518066406 -14.941397666931152 0 18.450071334838867 20.16885757446289 0
          -33.92448425292969 -36.610313415527344 0 -5.169971466064453 -46.072120666503906 0
          30.336950302124023 -32.949928283691406 0 32.62031173706055 -16.8801212310791 0
          15.921913146972656 -8.176467895507812 0 27.15457534790039 -38.47468948364258 0