<?xml version="1.0"?>
<VTKFile type="PolyData" version="0.1" byte_order="LittleEndian" header_type="UInt32" compressor="vtkZLibDataCompressor">
  <PolyData>
    <Piece NumberOfPoints="154" NumberOfVerts="0" NumberOfLines="0" NumberOfStrips="0" NumberOfPolys="0">
      <PointData>
        <DataArray type="Int32" Name="id" format="ascii" RangeMin="0" RangeMax="153">
          0 1 2 3 4 5
          6 7 8 9 10 11
          12 13 14 15 16 17
          18 19 20 21 22 23
          24 25 26 27 28 29
          30 31 32 33 34 35
          36 37 38 39 40 41
          42 43 44 45 46 47
          48 49 50 51 52 53
          54 55 56 57 58 59
          60 61 62 63 64 65
          66 67 68 69 70 71
          72 73 74 75 76 77
          78 79 80 81 82 83
          84 85 86 87 88 89
          90 91 92 93 94 95
          96 97 98 99 100 101
          102 103 104 105 106 107
          108 109 110 111 112 113
          114 115 116 117 118 119
          120 121 122 123 124 125
          126 127 128 129 130 131
          132 133 134 135 136 137
          138 139 140 141 142 143
          144 145 146 147 148 149
          150 151 152 153
        </DataArray>
        <DataArray type="Float64" Name="director" NumberOfComponents="3" format="ascii" RangeMin="0.9999999999999999" RangeMax="1">
          -0.9621338845443054 -0.2725773068538267 0 0.5748865175893297 -0.8182331525268414 0
          -0.4318607489660273 -0.9019402937570213 0 0.25791653926790087 0.9661672002154024 0
          -0.9105551685330543 0.4133875724519802 0 -0.2255622078912113 0.9742287669594046 0
          0.7325476118206824 0.6807157970958326 0 0.6898063186541826 0.7239939521465385 0
          0.9884600592486192 -0.15148171926082774 0 -0.5932861091382857 -0.8049916724436061 0
          -0.49448503279341194 0.869186143667338 0 -0.9485669796327995 0.3165765075780392 0
          -0.6485176234171527 -0.761199640119048 0 -0.17992186178300082 0.9836809054020205 0
          0.803522893932222 0.5952738520435676 0 0.9085942645307975 -0.4176798564232409 0
          -0.517167213913704 -0.8558843805402323 0 -0.7116057461855679 0.7025790076537165 0
          0.916048552079409 -0.40106738864337776 0 -0.9616492776387408 -0.27428209350391075 0
          0.5169293316024748 0.8560280755495223 0 0.566773422126056 -0.8238737087512379 0
          -0.8122443701563253 -0.5833173091460208 0 0.46149654853258454 0.8871420042431267 0
          -0.6128861084355522 -0.7901712587070757 0 -0.757463719026047 0.6528772582646984 0
          0.9660127682816965 -0.2584943549030297 0 0.7723241335247205 0.6352286460600542 0
          -0.6984409607599674 -0.7156676773005007 0 -0.07370185569254468 -0.9972803199038249 0
          0.5079567701510617 0.861382562893922 0 -0.9774687862440149 -0.21108001307241853 0
          -0.9985447307062454 -0.0539297763651197 0 0.24015573904107754 0.9707343720120525 0
          0.995884821443983 0.0906279339800154 0 0.20366055397434832 0.9790415613010827 0
          0.7168996874619705 0.6971763321548781 0 -0.8579883898534352 -0.5136690791518502 0
          -0.8005764600317054 -0.5992306164099956 0 0.9788382536630221 -0.20463546409634148 0
          0.47315090376101304 0.8809813972327319 0 0.9555471444622324 -0.2948383535262561 0
          0.003533755220446718 -0.9999937562675288 0 -0.9370632586707748 -0.34915963290350266 0
          0.9253779289374534 0.37904576060870204 0 -0.3974717839696396 0.9176143966547126 0
          0.21144925863949243 -0.977388976314348 0 -0.9988264158316946 0.04843336697784461 0
          -0.8129849785370744 -0.5822846594862968 0 -0.45164038546059226 0.8922000684941733 0
          0.8188378001214603 -0.5740249620811341 0 0.8392918925885968 0.5436810821014939 0
          0.9644255432858332 -0.26435463199616066 0 -0.571067484569575 0.8209031173453895 0
          -0.7166715253666902 0.6974108722471866 0 -0.9346579504601905 0.3555481903224317 0
          -0.9624955321993384 -0.2712975313126021 0 -0.685930511174634 0.7276670487521785 0
          -0.08063124708628748 -0.996744000229402 0 0.8463531019011838 -0.5326222178075605 0
          -0.953632559468394 0.3009733236048672 0 -0.2608454758052372 -0.9653805662804381 0
          -0.7723037603092892 -0.6352534154273648 0 0.9891178855032389 0.14712514597308496 0
          0.40284979785398733 -0.9152661035835434 0 -0.9997875086569047 -0.02061401304015757 0
          0.7691972569963833 -0.6390114082152524 0 -0.9545317010964594 -0.2981094289047223 0
          -0.6948035536543481 0.7191995702371418 0 0.9713154546104271 -0.23779463331820436 0
          0.627361903800914 0.7787278354208823 0 0.02938906214757171 0.9995680482218737 0
          0.3508674644961773 0.9364251290722734 0 -0.33823561945372993 0.9410614569371926 0
          0.2230110864321037 -0.9748159084300855 0 -0.9960766010168138 -0.08849522533329718 0
          -0.7965937313222274 0.6045150347329096 0 0.0839918562258352 -0.9964664410243521 0
          -0.6960925205546484 0.7179520895072848 0 -0.01099990669835306 -0.9999394991961401 0
          0.18306702736215621 0.9831004340822882 0 0.9612180210424947 -0.2757896227618986 0
          -0.8620853044897594 -0.5067631870832755 0 -0.934306422843225 -0.35647090797692993 0
          -0.789327392693303 0.6139725296330384 0 -0.08547831055917172 0.9963400315273645 0
          -0.9766068591741421 0.2150326547620554 0 -0.4677529539941848 -0.8838592501239743 0
          0.7847866657063868 0.6197659956220992 0 0.5609340215545418 0.8278605096649126 0
          0.9213997544957988 -0.38861612474919477 0 0.12711070900936158 -0.9918885359026676 0
          -0.9877907334998871 -0.15578660665074817 0 0.29616934413362345 -0.9551354456805901 0
          0.03856397965739797 0.9992561330674853 0 0.9968465843990737 0.07935292793527136 0
          -0.7519351441870954 0.6592370885624776 0 0.940621631041695 -0.339456841463626 0
          -0.8506004266216307 -0.5258126227384616 0 0.6941064257371905 -0.7198723982417593 0
          -0.6845557367766808 0.7289605224195174 0 0.6468827562338578 -0.7625894699556814 0
          -0.978089160982643 -0.20818643848308066 0 0.9997987725217884 0.020060270783943287 0
          -0.09299243293267408 0.9956668154645218 0 -0.690033069872482 0.7237778405576938 0
          0.9813367575810134 -0.1922970832342067 0 0.934541439678975 -0.3558543206464533 0
          -0.9015289976527664 -0.4327186919826763 0 -0.9979827613694096 0.06348549448092974 0
          0.28746081202283386 0.9577924000278834 0 0.45650329388686556 -0.8897217220403479 0
          0.5741146948597318 -0.8187748879552408 0 0.9996265262597255 0.02732778801722548 0
          -0.7686476708960961 -0.639672383354172 0 -0.12025557414035486 -0.9927429661741117 0
          -0.999289679582656 -0.03768469556189497 0 -0.8370958500195217 -0.5470562474555012 0
          -0.8171770392396953 0.5763867508361425 0 0.5565317536093914 -0.8308263399919719 0
          0.977074194279013 0.21289908143065694 0 -0.6441136630594378 -0.7649297935498087 0
          0.9755715345013093 -0.2196819998788263 0 -0.2998969174945589 0.9539716132449968 0
          0.27441321177690703 -0.9616118703522135 0 -0.7999362616953439 -0.6000849750034392 0
          -0.8830702646737902 0.4692407779050773 0 0.8184248210052458 -0.5746136200635443 0
          -0.6582401040752726 0.7528080534817453 0 -0.6624516975088969 0.7491046311881812 0
          0.932310210067774 0.3616596082000076 0 0.6661010609480505 0.7458614996122815 0
          0.8377954358579007 0.5459842558679419 0 -0.8328829375859476 0.5534491957516992 0
          -0.8061167540448234 0.5917565199034461 0 -0.9888033014354842 0.14922476694666648 0
          0.7492976607055176 0.6622333543859286 0 0.9179116297903374 0.396784878612639 0
          -0.8430529253954806 -0.5378306099341337 0 -0.020184291506790308 0.9997962764365393 0
          0.9171439892348754 -0.3985560224238731 0 0.9102170182441975 0.41413159707832264 0
          -0.5520845726294067 0.8337881173683188 0 0.9156679833493663 0.4019354976472029 0
          0.8423413689468049 -0.5389443553473984 0 -0.6901982087723119 -0.7236203649756495 0
          0.12382400882816443 0.9923041947093253 0 -0.8882685658276005 0.45932445500166624 0
          -0.34303916223423886 0.939321102272078 0 0.5003646768381053 0.865814755113759 0
          0.35742361693457575 -0.9339423740560259 0 0.007069427808886333 0.9999750112830095 0
          0.5604338162882359 0.8281992136923362 0 0.22835616524614763 -0.9735776608951513 0
          <InformationKey name="L2_NORM_RANGE" location="vtkDataArray" length="2">
            <Value index="0">
              1
            </Value>
            <Value index="1">
              1
            </Value>
          </InformationKey>
        </DataArray>
        <DataArray type="Float64" Name="velocity" NumberOfComponents="3" format="ascii" RangeMin="2.98391528750295" RangeMax="65.61664053985334">
          20.472372037415383 -30.489259884928693 0 -7.778161120144524 43.605506408926914 0
          -35.778279556590725 14.318100471258902 0 -2.7267860528004704 -6.306708942777526 0
          -25.56803597993237 0.5919415230237348 0 40.69440930810454 -42.34960265147567 0
          21.390392053252754 11.720491675449018 0 -31.091580543867785 -10.301819378431787 0
          -22.233594277397 35.80993014386058 0 40.8936574712134 11.727908496204755 0
          -31.918129728714472 1.502371966558826 0 32.46317064138093 -14.067556233339687 0
          31.61170207931397 -20.66117562390716 0 -32.788218903188394 -0.7210412736466054 0
          -30.467523066969363 36.43074923190564 0 -29.58028331655805 11.627227611362315 0
          37.80505508071815 -10.753091333426255 0 44.65772551607054 -33.330173144632525 0
          47.18774005931614 6.396489460552942 0 9.836891189866492 -36.87781496106794 0
          6.677739541459459 5.438027088135769 0 -18.951003944933063 -37.93510690561732 0
          23.77908201111339 -25.727634747998636 0 32.285914726045576 -31.45240287607238 0
          -18.732306147503376 38.172541468590836 0 17.42129460906331 23.929755673071398 0
          -43.74567596165927 -36.843843838172035 0 -41.00470913383489 -49.1685554695042 0
          -4.3489588147394045 13.430332075080756 0 2.9762992276979077 -0.21305715242312573 0
          -16.420210149222868 -24.717665071237764 0 -26.63245586108499 -32.68369682188443 0
          9.59810303037343 22.68931438280859 0 37.757309281314306 20.71597266757422 0
          -26.523439665569285 -2.200425364398683 0 -48.17882370239545 24.733119867345934 0
          15.472358145094617 -42.19330576503555 0 -2.7230899171649696 49.647506705142575 0
          3.209752212846098 39.943600631846664 0 27.290092728339346 -29.624030405099575 0
          40.710862227344634 -12.518743865476708 0 34.808888796398136 -17.330075407408792 0
          -17.326333983387784 15.921061981020685 0 8.676498234140595 -45.101679767889145 0
          26.99656655139428 -0.8247828969564566 0 -1.181598492863479 -7.087342925864128 0
          -10.527228461045638 27.645380145270124 0 47.47543864880045 24.850515939083976 0
          13.45020038299144 -42.781974126121774 0 13.33632968921519 2.89206325620421 0
          -20.383234879262602 -17.467213088655853 0 13.111992425538233 49.45054225750374 0
          1.6047826830209004 22.445391370448775 0 -25.442525168919026 -16.766088433362327 0
          24.860911549332883 18.296648546241826 0 18.127137052491975 -42.11576276898946 0
          -4.106371249565804 19.81468592825003 0 -43.2115168522386 -43.085994704941484 0
          2.7042817825837204 -23.795120132132308 0 -1.6624837545658195 -36.91945356486498 0
          -40.55592314206473 -37.96183180819797 0 46.98372058379586 25.62816454897687 0
          -23.182362140209666 22.4905983535036 0 -8.42374893276238 -2.5281598168396826 0
          -44.45585735866184 11.374414308737222 0 -0.9380815156004232 40.44748670579848 0
          43.5214270198436 41.82766196839604 0 -19.617472876146607 29.010177679462174 0
          -27.377259211045168 -5.104813753149479 0 1.0108912986547693 -26.93680745999526 0
          21.18807799653547 48.4452609761332 0 15.521324819791857 -22.733301715898534 0
          -3.0984436752635744 -49.699879474370995 0 -5.357606698271908 47.09441502974741 0
          -19.533649987483585 -28.48909553641595 0 -25.241492794096537 30.645102659141713 0
          -1.3628901407151872 -9.249808436218693 0 -28.437070584076316 4.0252086974848424 0
          22.302423751473526 -21.630608392707323 0 4.286209731170565 25.592468486596516 0
          -16.80227135673981 30.176297340482108 0 35.70724318896097 -48.51082997011254 0
          38.494266527440914 9.308694076898924 0 -41.37827709570729 42.48759424258512 0
          41.371957205314274 48.07567751376408 0 40.00221093710812 44.971458396046486 0
          43.45219546574209 -49.16757290067578 0 27.77940311086799 -47.40411222574361 0
          8.787704962513757 14.978077069606684 0 -17.176354508003442 -38.89206379839693 0
          -37.572734230027905 47.39150589914381 0 3.322947059262674 16.230028184641725 0
          20.82576325094061 -43.12614201683975 0 -29.404442159877867 -6.6570323329381935 0
          -48.88074135310182 -43.07374742736768 0 -15.693819004659524 -18.776991949103287 0
          49.2742614956165 -23.093566379026992 0 35.70662412955289 -14.438908494432013 0
          24.676827977366614 34.48562696853686 0 -28.28613766609157 46.49521791482232 0
          21.219265309149932 48.266786794162286 0 25.989900495501132 -30.673962513745963 0
          -14.741048879365302 -30.369965831724773 0 33.206792723445574 45.25947670903301 0
          26.73700517552618 36.1968809297727 0 -4.433626259916984 -16.731616061562868 0
          33.82599634129042 5.430878965379037 0 -37.91344272052366 -28.781627030961573 0
          -0.8760744559602713 -9.034520229977083 0 25.951148963832622 -14.29357740625877 0
          27.17860558051683 48.15404052238152 0 34.61617221348607 33.462162550860555 0
          -13.28055184508198 -44.93740558320786 0 47.55616001461492 34.25892934866374 0
          36.946038841117556 -42.45015674570037 0 -46.76239316488481 11.393180618063838 0
          23.568028568935404 11.552780427737098 0 16.263007945057282 45.12644264060411 0
          -23.411248530157515 41.93857265065735 0 -38.160345232049345 -18.69342940760771 0
          37.21153998486223 -26.635630373860984 0 30.80584946405935 5.653176675427417 0
          44.35923105765637 0.370346282237378 0 16.64168251311186 -34.7034267378138 0
          47.322877480901255 13.376690736606477 0 -32.1350217035443 -42.58571958176201 0
          -0.5025219679409361 28.59799073613067 0 -3.5320261053794297 38.30316610148137 0
          14.736889949280638 40.32409694969634 0 -49.402638529229115 19.356180838194604 0
          8.508964450503598 -39.46387075781778 0 49.03198966734128 -27.000797471280585 0
          -16.70921662991016 18.938285128010065 0 46.14207459237997 -27.3400906744995 0
          42.424140585792586 37.62461911345025 0 -6.825547086494495 -2.911259141055119 0
          6.210247997996007 33.76154121673389 0 -35.16911208657487 13.927818279591207 0
          49.5593687100304 13.93941034113417 0 -6.0481675260535965 -47.161165000275155 0
          -41.68490984500472 3.0367185203014984 0 28.200151364646487 23.664522522360798 0
          -30.983903256438072 -23.817273645282434 0 -4.775523168997552 -3.9973115200368454 0
          17.36371431475763 -32.304692769073746 0 -31.21691646176371 -40.35131875297581 0
          -17.61253928181918 -32.96735050248542 0 -47.52659271635095 33.064298464373394 0
          -25.51716157275273 -35.79649925661745 0 -34.4558032257712 -19.698927528483058 0
          -46.64276824331557 -9.071061809886274 0 28.312364537561464 -5.662808823633235 0
          -48.25117889494449 -21.421563451189467 0 45.139670111270334 -32.86849758057289 0
          <InformationKey name="L2_NORM_RANGE" location="vtkDataArray" length="2">
            <Value index="0">
              2.9839152875
            </Value>
            <Value index="1">
              65.61664054
            </Value>
          </InformationKey>
        </DataArray>
        <DataArray type="Float64" Name="force" NumberOfComponents="3" format="ascii" RangeMin="0.49999999999999994" RangeMax="0.5">
          -0.4810669422721527 -0.13628865342691335 0 0.28744325879466487 -0.4091165762634207 0
          -0.21593037448301364 -0.45097014687851067 0 0.12895826963395043 0.4830836001077012 0
          -0.45527758426652715 0.2066937862259901 0 -0.11278110394560566 0.4871143834797023 0
          0.3662738059103412 0.3403578985479163 0 0.3449031593270913 0.36199697607326925 0
          0.4942300296243096 -0.07574085963041387 0 -0.29664305456914286 -0.40249583622180307 0
          -0.24724251639670597 0.434593071833669 0 -0.47428348981639973 0.1582882537890196 0
          -0.32425881170857634 -0.380599820059524 0 -0.08996093089150041 0.49184045270101023 0
          0.401761446966111 0.2976369260217838 0 0.45429713226539875 -0.20883992821162045 0
          -0.258583606956852 -0.42794219027011615 0 -0.35580287309278397 0.35128950382685825 0
          0.4580242760397045 -0.20053369432168888 0 -0.4808246388193704 -0.13714104675195538 0
          0.2584646658012374 0.42801403777476116 0 0.283386711063028 -0.41193685437561894 0
          -0.40612218507816267 -0.2916586545730104 0 0.23074827426629227 0.44357100212156336 0
          -0.3064430542177761 -0.39508562935353786 0 -0.3787318595130235 0.3264386291323492 0
          0.48300638414084823 -0.12924717745151484 0 0.38616206676236026 0.3176143230300271 0
          -0.3492204803799837 -0.35783383865025037 0 -0.03685092784627234 -0.49864015995191246 0
          0.25397838507553083 0.430691281446961 0 -0.48873439312200745 -0.10554000653620926 0
          -0.4992723653531227 -0.02696488818255985 0 0.12007786952053877 0.48536718600602624 0
          0.4979424107219915 0.0453139669900077 0 0.10183027698717416 0.48952078065054133 0
          0.35844984373098526 0.34858816607743903 0 -0.4289941949267176 -0.2568345395759251 0
          -0.4002882300158527 -0.2996153082049978 0 0.48941912683151106 -0.10231773204817074 0
          0.23657545188050652 0.44049069861636597 0 0.4777735722311162 -0.14741917676312805 0
          0.001766877610223359 -0.4999968781337644 0 -0.4685316293353874 -0.17457981645175133 0
          0.4626889644687267 0.18952288030435102 0 -0.1987358919848198 0.4588071983273563 0
          0.10572462931974622 -0.488694488157174 0 -0.4994132079158473 0.024216683488922305 0
          -0.4064924892685372 -0.2911423297431484 0 -0.22582019273029613 0.44610003424708666 0
          0.4094189000607302 -0.28701248104056704 0 0.4196459462942984 0.27184054105074695 0
          0.4822127716429166 -0.13217731599808033 0 -0.2855337422847875 0.4104515586726947 0
          -0.3583357626833451 0.3487054361235933 0 -0.46732897523009526 0.17777409516121584 0
          -0.4812477660996692 -0.13564876565630105 0 -0.342965255587317 0.36383352437608923 0
          -0.04031562354314374 -0.498372000114701 0 0.4231765509505919 -0.26631110890378024 0
          -0.476816279734197 0.1504866618024336 0 -0.1304227379026186 -0.48269028314021906 0
          -0.3861518801546446 -0.3176267077136824 0 0.49455894275161943 0.07356257298654248 0
          0.20142489892699367 -0.4576330517917717 0 -0.49989375432845234 -0.010307006520078784 0
          0.38459862849819165 -0.3195057041076262 0 -0.4772658505482297 -0.14905471445236115 0
          -0.34740177682717405 0.3595997851185709 0 0.48565772730521356 -0.11889731665910218 0
          0.313680951900457 0.38936391771044115 0 0.014694531073785854 0.49978402411093686 0
          0.17543373224808864 0.4682125645361367 0 -0.16911780972686496 0.4705307284685963 0
          0.11150554321605186 -0.48740795421504274 0 -0.4980383005084069 -0.04424761266664859 0
          -0.3982968656611137 0.3022575173664548 0 0.0419959281129176 -0.49823322051217606 0
          -0.3480462602773242 0.3589760447536424 0 -0.00549995334917653 -0.49996974959807006 0
          0.09153351368107811 0.4915502170411441 0 0.4806090105212473 -0.1378948113809493 0
          -0.4310426522448797 -0.25338159354163775 0 -0.4671532114216125 -0.17823545398846496 0
          -0.3946636963466515 0.3069862648165192 0 -0.04273915527958586 0.49817001576368225 0
          -0.48830342958707107 0.1075163273810277 0 -0.2338764769970924 -0.44192962506198713 0
          0.3923933328531934 0.3098829978110496 0 0.2804670107772709 0.4139302548324563 0
          0.4606998772478994 -0.19430806237459738 0 0.06355535450468079 -0.4959442679513338 0
          -0.49389536674994355 -0.07789330332537409 0 0.14808467206681172 -0.47756772284029503 0
          0.019281989828698984 0.49962806653374264 0 0.49842329219953685 0.03967646396763568 0
          -0.3759675720935477 0.3296185442812388 0 0.4703108155208475 -0.169728420731813 0
          -0.42530021331081536 -0.2629063113692308 0 0.34705321286859525 -0.35993619912087965 0
          -0.3422778683883404 0.3644802612097587 0 0.3234413781169289 -0.3812947349778407 0
          -0.4890445804913215 -0.10409321924154033 0 0.4998993862608942 0.010030135391971643 0
          -0.04649621646633704 0.4978334077322609 0 -0.345016534936241 0.3618889202788469 0
          0.4906683787905067 -0.09614854161710334 0 0.4672707198394875 -0.17792716032322664 0
          -0.4507644988263832 -0.21635934599133816 0 -0.4989913806847048 0.03174274724046487 0
          0.14373040601141693 0.4788962000139417 0 0.22825164694343278 -0.44486086102017397 0
          0.2870573474298659 -0.4093874439776204 0 0.49981326312986274 0.01366389400861274 0
          -0.38432383544804805 -0.319836191677086 0 -0.06012778707017743 -0.49637148308705586 0
          -0.499644839791328 -0.018842347780947486 0 -0.41854792500976085 -0.2735281237277506 0
          -0.40858851961984766 0.2881933754180713 0 0.2782658768046957 -0.41541316999598593 0
          0.4885370971395065 0.10644954071532847 0 -0.3220568315297189 -0.38246489677490436 0
          0.48778576725065464 -0.10984099993941315 0 -0.14994845874727944 0.4769858066224984 0
          0.13720660588845351 -0.48080593517610676 0 -0.39996813084767197 -0.3000424875017196 0
          -0.4415351323368951 0.23462038895253864 0 0.4092124105026229 -0.28730681003177216 0
          -0.3291200520376363 0.37640402674087264 0 -0.33122584875444844 0.3745523155940906 0
          0.466155105033887 0.1808298041000038 0 0.3330505304740253 0.37293074980614077 0
          0.41889771792895036 0.27299212793397093 0 -0.4164414687929738 0.2767245978758496 0
          -0.4030583770224117 0.29587825995172307 0 -0.4944016507177421 0.07461238347333324 0
          0.3746488303527588 0.3311166771929643 0 0.4589558148951687 0.1983924393063195 0
          -0.4215264626977403 -0.26891530496706684 0 -0.010092145753395154 0.49989813821826967 0
          0.4585719946174377 -0.19927801121193656 0 0.45510850912209877 0.20706579853916132 0
          -0.27604228631470334 0.4168940586841594 0 0.45783399167468314 0.20096774882360144 0
          0.42117068447340245 -0.2694721776736992 0 -0.34509910438615593 -0.36181018248782476 0
          0.06191200441408221 0.49615209735466265 0 -0.44413428291380025 0.22966222750083312 0
          -0.17151958111711943 0.469660551136039 0 0.25018233841905263 0.4329073775568795 0
          0.17871180846728787 -0.46697118702801294 0 0.0035347139044431663 0.49998750564150474 0
          0.2802169081441179 0.4140996068461681 0 0.11417808262307381 -0.48678883044757565 0
          <InformationKey name="L2_NORM_RANGE" location="vtkDataArray" length="2">
            <Value index="0">
              0.5
            </Value>
            <Value index="1">
              0.5
            </Value>
          </InformationKey>
        </DataArray>
        <DataArray type="Float64" Name="radius" format="ascii" RangeMin="1" RangeMax="1">
          1 1 1 1 1 1
          1 1 1 1 1 1
          1 1 1 1 1 1
          1 1 1 1 1 1
          1 1 1 1 1 1
          1 1 1 1 1 1
          1 1 1 1 1 1
          1 1 1 1 1 1
          1 1 1 1 1 1
          1 1 1 1 1 1
          1 1 1 1 1 1
          1 1 1 1 1 1
          1 1 1 1 1 1
          1 1 1 1 1 1
          1 1 1 1 1 1
          1 1 1 1 1 1
          1 1 1 1 1 1
          1 1 1 1 1 1
          1 1 1 1 1 1
          1 1 1 1 1 1
          1 1 1 1 1 1
          1 1 1 1 1 1
          1 1 1 1 1 1
          1 1 1 1 1 1
          1 1 1 1 1 1
          1 1 1 1
        </DataArray>
      </PointData>
      <CellData>
      </CellData>
      <Points>
        <DataArray type="Float32" Name="Points" NumberOfComponents="3" format="ascii" RangeMin="2.5233120920549745" RangeMax="67.29546874006238">
          -37.78992462158203 34.106292724609375 0 46.60884094238281 -28.21292495727539 0
          -20.10786247253418 4.615949630737305 0 -31.328916549682617 50.02593231201172 0
          48.738521575927734 46.40298080444336 0 22.040992736816406 48.68595504760742 0
          -40.35182571411133 29.301067352294922 0 -19.45509147644043 -49.92127227783203 0
          -39.23076629638672 13.508617401123047 0 37.68562316894531 0.4224521815776825 0
          29.370149612426758 -13.550183296203613 0 -28.88920021057129 17.91727638244629 0
          -10.830536842346191 23.610998153686523 0 -3.2454535961151123 -7.270285606384277 0
          -32.541568756103516 -19.792760848999023 0 28.638212203979492 -18.353235244750977 0
          36.71334457397461 -34.75468444824219 0 48.589683532714844 31.131120681762695 0
          -37.8973274230957 26.084211349487305 0 -1.3493765592575073 15.34992790222168 0
          -38.475528717041016 -27.96219253540039 0 -44.99081039428711 -45.621700286865234 0
          -9.183048248291016 -4.373294353485107 0 -1.6238720417022705 29.55091094970703 0
          41.5302619934082 30.253740310668945 0 20.76367950439453 -50.43281936645508 0
          20.990657806396484 14.554407119750977 0 -4.457944869995117 27.22123146057129 0
          7.542953014373779 37.55337142944336 0 30.596712112426758 -47.91501998901367 0
          32.74832534790039 32.737117767333984 0 43.67784118652344 -9.12817096710205 0
          -7.860709190368652 8.092954635620117 0 -34.02614974975586 26.449047088623047 0
          -26.772151947021484 31.448162078857422 0 49.31877899169922 -17.419902801513672 0
          -20.586986541748047 -48.416839599609375 0 -29.34867286682129 40.64223098754883 0
          34.0678825378418 45.34583282470703 0 27.629690170288086 49.518341064453125 0
          -42.788604736328125 29.47572898864746 0 9.397439956665039 23.832326889038086 0
          19.324724197387695 18.545068740844727 0 -10.807560920715332 6.050813674926758 0
          -29.841646194458008 2.4142730236053467 0 -9.930644035339355 -14.732767105102539 0
          9.005455017089844 -13.40211009979248 0 46.545867919921875 -34.96626281738281 0
          -11.32040023803711 -12.02575969696045 0 22.282207489013672 -11.820321083068848 0
          42.37583541870117 -6.4134721755981445 0 35.076629638671875 12.168416023254395 0
          -36.7812385559082 -2.3062973022460938 0 -15.349045753479004 4.094250679016113 0
          21.927764892578125 48.13613510131836 0 21.36689567565918 41.606231689453125 0
          1.1175096035003662 5.905477046966553 0 0.90699303150177 -3.643357038497925 0
          4.724617958068848 -5.81282901763916 0 34.84994125366211 10.395648002624512 0
          1.1064748764038086 47.97754669189453 0 -47.081138610839844 47.46980285644531 0
          -14.370723724365234 17.240188598632812 0 -15.00239372253418 35.80030822753906 0
          -45.40288162231445 15.190509796142578 0 24.370555877685547 -36.291927337646484 0
          48.12095260620117 -40.524681091308594 0 -21.662445068359375 30.59256935119629 0
          -42.27781677246094 13.618369102478027 0 -48.78854751586914 18.91067123413086 0
          3.162889242172241 -6.056355953216553 0 -29.949098587036133 -34.764347076416016 0
          -11.496991157531738 26.48801612854004 0 -46.88094711303711 -24.68604278564453 0
          1.3497734069824219 33.070499420166016 0 47.3637580871582 32.43637466430664 0
          -19.32793617248535 -44.0013427734375 0 -24.330171585083008 3.6124186515808105 0
          39.239830017089844 -15.225576400756836 0 -47.144073486328125 -33.392822265625 0
          38.226234436035156 -29.714982986450195 0 -23.4307861328125 -0.21639348566532135 0
          -27.386947631835938 -0.688967764377594 0 44.42524719238281 15.545758247375488 0
          26.503896713256836 -6.636291027069092 0 5.074099540710449 -44.62287139892578 0
          -17.041669845581055 -8.574971199035645 0 40.42072677612305 31.14006233215332 0
          -24.424287796020508 -36.4151496887207 0 -1.662466049194336 -11.614500999450684 0
          22.066675186157227 -21.056438446044922 0 11.632131576538086 31.468708038330078 0
          -18.713056564331055 -11.906556129455566 0 -15.011012077331543 31.36591148376465 0
          18.311256408691406 -12.228370666503906 0 -4.380261421203613 -18.907793045043945 0
          40.615631103515625 -1.5081379413604736 0 26.16326141357422 -37.98987579345703 0
          -9.575647354125977 37.3741569519043 0 -13.006370544433594 41.926578521728516 0
          5.143214702606201 -35.77186965942383 0 -29.31517219543457 44.97053909301758 0
          49.4825553894043 -26.8170166015625 0 -47.89277267456055 -11.469429969787598 0
          28.382831573486328 -3.238663911819458 0 4.240940093994141 -48.52166748046875 0
          39.71593475341797 -29.52973175048828 0 39.105560302734375 -5.666742324829102 0
          -34.53059005737305 -26.219079971313477 0 29.009666442871094 -2.5860977172851562 0
          -40.502479553222656 15.288551330566406 0 14.092607498168945 8.012928009033203 0
          21.686819076538086 -15.047462463378906 0 18.516469955444336 20.097326278686523 0
          -33.829803466796875 -36.656524658203125 0 -4.905301570892334 -46.011837005615234 0
          30.09040641784668 -32.8560676574707 0 32.5 -16.833637237548828 0
          15.889424324035645 -8.187216758728027 0 27.134599685668945 -38.3754768371582 0