<?xml version="1.0"?>
<VTKFile type="PolyData" version="0.1" byte_order="LittleEndian" header_type="UInt32" compressor="vtkZLibDataCompressor">
  <PolyData>
    <Piece NumberOfPoints="154" NumberOfVerts="0" NumberOfLines="0" NumberOfStrips="0" NumberOfPolys="0">
      <PointData>
        <DataArray type="Int32" Name="id" format="ascii" RangeMin="0" RangeMax="153">
          0 1 2 3 4 5
          6 7 8 9 10 11
          12 13 14 15 16 17
          18 19 20 21 22 23
          24 25 26 27 28 29
          30 31 32 33 34 35
          36 37 38 39 40 41
          42 43 44 45 46 47
          48 49 50 51 52 53
          54 55 56 57 58 59
          60 61 62 63 64 65
          66 67 68 69 70 71
          72 73 74 75 76 77
          78 79 80 81 82 83
          84 85 86 87 88 89
          90 91 92 93 94 95
          96 97 98 99 100 101
          102 103 104 105 106 107
          108 109 110 111 112 113
          114 115 116 117 118 119
          120 121 122 123 124 125
          126 127 128 129 130 131
          132 133 134 135 136 137
          138 139 140 141 142 143
          144 145 146 147 148 149
          150 151 152 153
        </DataArray>
        <DataArray type="Float64" Name="director" NumberOfComponents="3" format="ascii" RangeMin="0.9999999999999999" RangeMax="1">
          -0.9871925979615205 -0.15953298884551712 0 0.6410721287237412 -0.7674806354388435 0
          -0.48611822503375063 -0.8738930548356795 0 0.31514794462565315 0.9490425559469008 0
          -0.9300056528127786 0.36754521590720984 0 -0.26953574196335733 0.9629903861432172 0
          0.7097410549780355 0.7044626568375822 0 0.6716927534051007 0.740829835402891 0
          0.9958463617493872 -0.0910495677667314 0 -0.5658770706852869 -0.8244896244784641 0
          -0.5349238263154343 0.8449002899987993 0 -0.9455818766664594 0.32538425671801763 0
          -0.6666746812651074 -0.7453488239475979 0 -0.15345800311554356 0.9881551706487144 0
          0.7927968153529765 0.6094860208127652 0 0.9096738688926097 -0.41532331051116206 0
          -0.5626395794372049 -0.8267023065473601 0 -0.6539161178907757 0.7565670563556525 0
          0.9230893755206316 -0.38458549738768144 0 -0.9603858143382249 -0.27867380145594006 0
          0.4966123164220878 0.86797246913591 0 0.5278491496566888 -0.8493381394984629 0
          -0.7883818406711754 -0.6151862102647696 0 0.4489441959382586 0.8935597959472833 0
          -0.6808713480783134 -0.7324030361529232 0 -0.7763150785962503 0.6303450632344937 0
          0.9695885095158594 -0.24474092876920747 0 0.7921780270754221 0.6102900731774128 0
          -0.6514803387629976 -0.7586655180020045 0 -0.09037816180734883 -0.99590751973681 0
          0.5150500575681892 0.8571601006807333 0 -0.9779248365400939 -0.20895696704831496 0
          -0.9939495975311129 -0.1098371411123702 0 0.25210550974508295 0.9676997529999539 0
          0.9923034644219768 0.12382986108424142 0 0.2607112163018188 0.9654168331318997 0
          0.7324146746873339 0.6808588284678747 0 -0.8833473975513164 -0.4687188658879825 0
          -0.789318573957539 -0.6139838668936155 0 0.9739235782841451 -0.2268763179845059 0
          0.4694046018629547 0.8829831933564087 0 0.940493254521302 -0.3398123573384723 0
          0.02240110566752403 -0.9997490637479349 0 -0.9525479162156907 -0.3043886780304838 0
          0.9268153720110406 0.3755173314296379 0 -0.485626569525537 0.8741663657284343 0
          0.20490524189815304 -0.9787818152390549 0 -0.9999662693642499 0.008213411821179307 0
          -0.8186851542925012 -0.5742426474418837 0 -0.49547711022649976 0.8686209951650933 0
          0.8335903638586677 -0.5523831145880311 0 0.836491524374844 0.5479798624484752 0
          0.9469080460429787 -0.32150451371492134 0 -0.6102463055170493 0.7922117435400665 0
          -0.6897498648617922 0.7240477359422784 0 -0.9214761497885395 0.3884349435502541 0
          -0.9588693160492885 -0.2838479077590138 0 -0.6462109307266979 0.7631588517532473 0
          -0.12787877341303483 -0.991789806012533 0 0.8653303501926732 -0.501201940374761 0
          -0.9216714569888832 0.3879712945205987 0 -0.22744065474448993 -0.9737919431631162 0
          -0.7067563042051741 -0.7074570845402874 0 0.9981804675122065 0.06029721616387477 0
          0.3706034414034876 -0.92879119785875 0 -0.9999560958972523 0.009370500409536806 0
          0.7479732945600032 -0.6637288231085454 0 -0.9338523647418224 -0.35765872122192993 0
          -0.7232947007282718 0.69053948178102 0 0.9566967072203919 -0.29108660290995814 0
          0.5753390958101097 0.8179149863111724 0 0.10079903490848464 0.9949068069731547 0
          0.3033910420350177 0.952866137299939 0 -0.32066498930473963 0.947192675559831 0
          0.22970882792591418 -0.9732593972692495 0 -0.9952646461950291 -0.09720228410013608 0
          -0.8519734424962435 0.5235850010085279 0 0.07289567767001034 -0.9973395711476758 0
          -0.6921628876132442 0.7217413227818507 0 -0.0054607740200662115 -0.9999850898623948 0
          0.24237675604084413 0.9701822035736983 0 0.9712622661463769 -0.23801178617918195 0
          -0.8098421232022511 -0.5866478803228304 0 -0.9172941849598942 -0.3982102186518616 0
          -0.7715242680877137 0.6361998929202345 0 -0.002928193040927999 0.9999957128335676 0
          -0.9777334103329722 0.20985084779112934 0 -0.440162876487534 -0.8979179484575525 0
          0.7993896148489654 0.6008129856050239 0 0.5423812187996672 0.8401324975820109 0
          0.9453058383047314 -0.32618533392381266 0 0.1538330392866017 -0.9880968555884827 0
          -0.9912566852476715 -0.13194765610574025 0 0.236020808090699 -0.9717480013605448 0
          0.05735794143776971 0.9983536780890935 0 0.9877267116872798 0.15619200689994778 0
          -0.7564810212339292 0.6540156454649013 0 0.9555451350601945 -0.2948448657562052 0
          -0.8906926816602132 -0.4546059247710463 0 0.7289724853072065 -0.6845429976743862 0
          -0.7523958681795645 0.6587112095192547 0 0.6138538870821086 -0.7894196636227058 0
          -0.9769479461752953 -0.21347765799697213 0 0.9999956827685424 0.002938442491638605 0
          -0.0344091936209975 0.9994078283635528 0 -0.713882265794189 0.7002657428323584 0
          0.9861936214381426 -0.16559631950838027 0 0.9439682439711995 -0.3300362925102782 0
          -0.8899115145195889 -0.45613320020083103 0 -0.9955060938505406 0.09469750316897871 0
          0.3317475019228447 0.9433682181247958 0 0.48992086047639377 -0.8717669129245901 0
          0.5467743742489499 -0.837279991200476 0 0.9979945124466059 0.06330049862727335 0
          -0.7411357145186189 -0.6713552358215256 0 -0.10285121045969986 -0.9946967520339928 0
          -0.9983161889321751 -0.05800678336141074 0 -0.8109702639187311 -0.5850873704324712 0
          -0.8200766691502595 0.5722536646587909 0 0.595628667837866 -0.8032599143799527 0
          0.9732861748502875 0.22959534369254037 0 -0.6287487527882679 -0.7776085171004736 0
          0.9844700518043703 -0.17555260493738153 0 -0.32589773719383386 0.9454050269021943 0
          0.21056254254776147 -0.9775803883445198 0 -0.7807581546153916 -0.6248333409810718 0
          -0.9049835561041026 0.4254465456213888 0 0.8018297844418298 -0.5975525054603726 0
          -0.6114222231259251 0.7913045337085789 0 -0.6871425645274699 0.7265226053018666 0
          0.9238776916596936 0.38268787654373915 0 0.7110550871450974 0.7031363047411775 0
          0.8341221636156909 0.5515797459706788 0 -0.8128188739268006 0.5825165046488965 0
          -0.7996080881903493 0.6005221938451355 0 -0.9842912609546451 0.1765522970915832 0
          0.7821633904050097 0.6230733750611884 0 0.9458843207365489 0.3245040088885767 0
          -0.8514199167154776 -0.5244846283926816 0 0.011345812636052362 0.9999356341963355 0
          0.9055966350902724 -0.4241399940033666 0 0.9084083112300801 0.4180841303949646 0
          -0.5024354219241901 0.8646147389420684 0 0.924456560886181 0.3812873811634668 0
          0.8545590882742511 -0.5193541803508284 0 -0.7398813303089368 -0.6727374057240151 0
          0.12961703625969045 0.9915641300043352 0 -0.9030409846057007 0.42955439716334715 0
          -0.334319763804641 0.9424597049898786 0 0.4679375656333715 0.8837615259045362 0
          0.3429348412368527 -0.9393591936346046 0 -0.025387231430603292 0.9996776922990175 0
          0.5485125043875038 0.8361423518340335 0 0.2533308154242629 -0.9673797072279726 0
          <InformationKey name="L2_NORM_RANGE" location="vtkDataArray" length="2">
            <Value index="0">
              1
            </Value>
            <Value index="1">
              1
            </Value>
          </InformationKey>
        </DataArray>
        <DataArray type="Float64" Name="velocity" NumberOfComponents="3" format="ascii" RangeMin="2.98391528750295" RangeMax="65.61664053985334">
          20.472372037415383 -30.489259884928693 0 -7.778161120144524 43.605506408926914 0
          -35.778279556590725 14.318100471258902 0 -2.7267860528004704 -6.306708942777526 0
          -25.56803597993237 0.5919415230237348 0 40.69440930810454 -42.34960265147567 0
          21.390392053252754 11.720491675449018 0 -31.091580543867785 -10.301819378431787 0
          -22.233594277397 35.80993014386058 0 40.8936574712134 11.727908496204755 0
          -31.918129728714472 1.502371966558826 0 32.46317064138093 -14.067556233339687 0
          31.61170207931397 -20.66117562390716 0 -32.788218903188394 -0.7210412736466054 0
          -30.467523066969363 36.43074923190564 0 -29.58028331655805 11.627227611362315 0
          37.80505508071815 -10.753091333426255 0 44.65772551607054 -33.330173144632525 0
          47.18774005931614 6.396489460552942 0 9.836891189866492 -36.87781496106794 0
          6.677739541459459 5.438027088135769 0 -18.951003944933063 -37.93510690561732 0
          23.77908201111339 -25.727634747998636 0 32.285914726045576 -31.45240287607238 0
          -18.732306147503376 38.172541468590836 0 17.42129460906331 23.929755673071398 0
          -43.74567596165927 -36.843843838172035 0 -41.00470913383489 -49.1685554695042 0
          -4.3489588147394045 13.430332075080756 0 2.9762992276979077 -0.21305715242312573 0
          -16.420210149222868 -24.717665071237764 0 -26.63245586108499 -32.68369682188443 0
          9.59810303037343 22.68931438280859 0 37.757309281314306 20.71597266757422 0
          -26.523439665569285 -2.200425364398683 0 -48.17882370239545 24.733119867345934 0
          15.472358145094617 -42.19330576503555 0 -2.7230899171649696 49.647506705142575 0
          3.209752212846098 39.943600631846664 0 27.290092728339346 -29.624030405099575 0
          40.710862227344634 -12.518743865476708 0 34.808888796398136 -17.330075407408792 0
          -17.326333983387784 15.921061981020685 0 8.676498234140595 -45.101679767889145 0
          26.99656655139428 -0.8247828969564566 0 -1.181598492863479 -7.087342925864128 0
          -10.527228461045638 27.645380145270124 0 47.47543864880045 24.850515939083976 0
          13.45020038299144 -42.781974126121774 0 13.33632968921519 2.89206325620421 0
          -20.383234879262602 -17.467213088655853 0 13.111992425538233 49.45054225750374 0
          1.6047826830209004 22.445391370448775 0 -25.442525168919026 -16.766088433362327 0
          24.860911549332883 18.296648546241826 0 18.127137052491975 -42.11576276898946 0
          -4.106371249565804 19.81468592825003 0 -43.2115168522386 -43.085994704941484 0
          2.7042817825837204 -23.795120132132308 0 -1.6624837545658195 -36.91945356486498 0
          -40.55592314206473 -37.96183180819797 0 46.98372058379586 25.62816454897687 0
          -23.182362140209666 22.4905983535036 0 -8.42374893276238 -2.5281598168396826 0
          -44.45585735866184 11.374414308737222 0 -0.9380815156004232 40.44748670579848 0
          43.5214270198436 41.82766196839604 0 -19.617472876146607 29.010177679462174 0
          -27.377259211045168 -5.104813753149479 0 1.0108912986547693 -26.93680745999526 0
          21.18807799653547 48.4452609761332 0 15.521324819791857 -22.733301715898534 0
          -3.0984436752635744 -49.699879474370995 0 -5.357606698271908 47.09441502974741 0
          -19.533649987483585 -28.48909553641595 0 -25.241492794096537 30.645102659141713 0
          -1.3628901407151872 -9.249808436218693 0 -28.437070584076316 4.0252086974848424 0
          22.302423751473526 -21.630608392707323 0 4.286209731170565 25.592468486596516 0
          -16.80227135673981 30.176297340482108 0 35.70724318896097 -48.51082997011254 0
          38.494266527440914 9.308694076898924 0 -41.37827709570729 42.48759424258512 0
          41.371957205314274 48.07567751376408 0 40.00221093710812 44.971458396046486 0
          43.45219546574209 -49.16757290067578 0 27.77940311086799 -47.40411222574361 0
          8.787704962513757 14.978077069606684 0 -17.176354508003442 -38.89206379839693 0
          -37.572734230027905 47.39150589914381 0 3.322947059262674 16.230028184641725 0
          20.82576325094061 -43.12614201683975 0 -29.404442159877867 -6.6570323329381935 0
          -48.88074135310182 -43.07374742736768 0 -15.693819004659524 -18.776991949103287 0
          49.2742614956165 -23.093566379026992 0 35.70662412955289 -14.438908494432013 0
          24.676827977366614 34.48562696853686 0 -28.28613766609157 46.49521791482232 0
          21.219265309149932 48.266786794162286 0 25.989900495501132 -30.673962513745963 0
          -14.741048879365302 -30.369965831724773 0 33.206792723445574 45.25947670903301 0
          26.73700517552618 36.1968809297727 0 -4.433626259916984 -16.731616061562868 0
          33.82599634129042 5.430878965379037 0 -37.91344272052366 -28.781627030961573 0
          -0.8760744559602713 -9.034520229977083 0 25.951148963832622 -14.29357740625877 0
          27.17860558051683 48.15404052238152 0 34.61617221348607 33.462162550860555 0
          -13.28055184508198 -44.93740558320786 0 47.55616001461492 34.25892934866374 0
          36.946038841117556 -42.45015674570037 0 -46.76239316488481 11.393180618063838 0
          23.568028568935404 11.552780427737098 0 16.263007945057282 45.12644264060411 0
          -23.411248530157515 41.93857265065735 0 -38.160345232049345 -18.69342940760771 0
          37.21153998486223 -26.635630373860984 0 30.80584946405935 5.653176675427417 0
          44.35923105765637 0.370346282237378 0 16.64168251311186 -34.7034267378138 0
          47.322877480901255 13.376690736606477 0 -32.1350217035443 -42.58571958176201 0
          -0.5025219679409361 28.59799073613067 0 -3.5320261053794297 38.30316610148137 0
          14.736889949280638 40.32409694969634 0 -49.402638529229115 19.356180838194604 0
          8.508964450503598 -39.46387075781778 0 49.03198966734128 -27.000797471280585 0
          -16.70921662991016 18.938285128010065 0 46.14207459237997 -27.3400906744995 0
          42.424140585792586 37.62461911345025 0 -6.825547086494495 -2.911259141055119 0
          6.210247997996007 33.76154121673389 0 -35.16911208657487 13.927818279591207 0
          49.5593687100304 13.93941034113417 0 -6.0481675260535965 -47.161165000275155 0
          -41.68490984500472 3.0367185203014984 0 28.200151364646487 23.664522522360798 0
          -30.983903256438072 -23.817273645282434 0 -4.775523168997552 -3.9973115200368454 0
          17.36371431475763 -32.304692769073746 0 -31.21691646176371 -40.35131875297581 0
          -17.61253928181918 -32.96735050248542 0 -47.52659271635095 33.064298464373394 0
          -25.51716157275273 -35.79649925661745 0 -34.4558032257712 -19.698927528483058 0
          -46.64276824331557 -9.071061809886274 0 28.312364537561464 -5.662808823633235 0
          -48.25117889494449 -21.421563451189467 0 45.139670111270334 -32.86849758057289 0
          <InformationKey name="L2_NORM_RANGE" location="vtkDataArray" length="2">
            <Value index="0">
              2.9839152875
            </Value>
            <Value index="1">
              65.61664054
            </Value>
          </InformationKey>
        </DataArray>
        <DataArray type="Float64" Name="force" NumberOfComponents="3" format="ascii" RangeMin="0.49999999999999994" RangeMax="0.5">
          -0.49359629898076024 -0.07976649442275856 0 0.3205360643618706 -0.38374031771942174 0
          -0.24305911251687531 -0.43694652741783974 0 0.15757397231282658 0.4745212779734504 0
          -0.4650028264063893 0.18377260795360492 0 -0.13476787098167867 0.4814951930716086 0
          0.35487052748901776 0.3522313284187911 0 0.33584637670255035 0.3704149177014455 0
          0.4979231808746936 -0.0455247838833657 0 -0.28293853534264346 -0.41224481223923204 0
          -0.26746191315771717 0.42245014499939965 0 -0.4727909383332297 0.16269212835900881 0
          -0.3333373406325537 -0.37267441197379897 0 -0.07672900155777178 0.4940775853243572 0
          0.39639840767648826 0.3047430104063826 0 0.45483693444630485 -0.20766165525558103 0
          -0.28131978971860244 -0.41335115327368005 0 -0.3269580589453879 0.37828352817782623 0
          0.4615446877603158 -0.19229274869384072 0 -0.48019290716911245 -0.13933690072797003 0
          0.2483061582110439 0.433986234567955 0 0.2639245748283444 -0.42466906974923146 0
          -0.3941909203355877 -0.3075931051323848 0 0.2244720979691293 0.44677989797364165 0
          -0.3404356740391567 -0.3662015180764616 0 -0.38815753929812513 0.31517253161724684 0
          0.4847942547579297 -0.12237046438460374 0 0.39608901353771103 0.3051450365887064 0
          -0.3257401693814988 -0.3793327590010023 0 -0.04518908090367441 -0.497953759868405 0
          0.2575250287840946 0.42858005034036667 0 -0.48896241827004694 -0.10447848352415748 0
          -0.49697479876555645 -0.0549185705561851 0 0.12605275487254147 0.48384987649997696 0
          0.4961517322109884 0.06191493054212071 0 0.1303556081509094 0.48270841656594987 0
          0.36620733734366695 0.34042941423393736 0 -0.4416736987756582 -0.23435943294399125 0
          -0.3946592869787695 -0.30699193344680775 0 0.48696178914207255 -0.11343815899225294 0
          0.23470230093147734 0.44149159667820437 0 0.470246627260651 -0.16990617866923616 0
          0.011200552833762015 -0.49987453187396746 0 -0.47627395810784534 -0.1521943390152419 0
          0.4634076860055203 0.18775866571481895 0 -0.2428132847627685 0.43708318286421716 0
          0.10245262094907652 -0.48939090761952747 0 -0.49998313468212496 0.004106705910589654 0
          -0.4093425771462506 -0.28712132372094185 0 -0.24773855511324988 0.43431049758254664 0
          0.41679518192933385 -0.27619155729401557 0 0.418245762187422 0.2739899312242376 0
          0.47345402302148937 -0.16075225685746067 0 -0.30512315275852464 0.39610587177003326 0
          -0.3448749324308961 0.3620238679711392 0 -0.46073807489426977 0.19421747177512705 0
          -0.47943465802464424 -0.1419239538795069 0 -0.32310546536334894 0.38157942587662363 0
          -0.06393938670651741 -0.4958949030062665 0 0.4326651750963366 -0.2506009701873805 0
          -0.4608357284944416 0.19398564726029935 0 -0.11372032737224497 -0.4868959715815581 0
          -0.35337815210258705 -0.3537285422701437 0 0.49909023375610323 0.030148608081937384 0
          0.1853017207017438 -0.464395598929375 0 -0.49997804794862616 0.004685250204768403 0
          0.3739866472800016 -0.3318644115542727 0 -0.4669261823709112 -0.17882936061096497 0
          -0.3616473503641359 0.34526974089051 0 0.47834835361019595 -0.14554330145497907 0
          0.28766954790505483 0.4089574931555862 0 0.05039951745424232 0.49745340348657735 0
          0.15169552101750886 0.4764330686499695 0 -0.16033249465236982 0.4735963377799155 0
          0.11485441396295709 -0.48662969863462474 0 -0.49763232309751454 -0.04860114205006804 0
          -0.42598672124812176 0.26179250050426395 0 0.03644783883500517 -0.4986697855738379 0
          -0.3460814438066221 0.36087066139092533 0 -0.0027303870100331058 -0.4999925449311974 0
          0.12118837802042207 0.48509110178684917 0 0.48563113307318845 -0.11900589308959098 0
          -0.40492106160112556 -0.2933239401614152 0 -0.4586470924799471 -0.1991051093259308 0
          -0.38576213404385684 0.31809994646011724 0 -0.0014640965204639996 0.4999978564167838 0
          -0.4888667051664861 0.10492542389556467 0 -0.220081438243767 -0.44895897422877623 0
          0.3996948074244827 0.30040649280251197 0 0.2711906093998336 0.42006624879100546 0
          0.4726529191523657 -0.16309266696190633 0 0.07691651964330085 -0.49404842779424135 0
          -0.49562834262383576 -0.06597382805287012 0 0.1180104040453495 -0.4858740006802724 0
          0.028678970718884856 0.49917683904454674 0 0.4938633558436399 0.07809600344997389 0
          -0.3782405106169646 0.32700782273245066 0 0.4777725675300972 -0.1474224328781026 0
          -0.4453463408301066 -0.22730296238552314 0 0.36448624265360324 -0.3422714988371931 0
          -0.37619793408978225 0.32935560475962733 0 0.3069269435410543 -0.3947098318113529 0
          -0.4884739730876477 -0.10673882899848607 0 0.4999978413842712 0.0014692212458193026 0
          -0.01720459681049875 0.4997039141817764 0 -0.3569411328970945 0.3501328714161792 0
          0.4930968107190713 -0.08279815975419014 0 0.47198412198559975 -0.1650181462551391 0
          -0.44495575725979447 -0.22806660010041552 0 -0.4977530469252703 0.047348751584489354 0
          0.16587375096142234 0.4716841090623979 0 0.24496043023819689 -0.43588345646229504 0
          0.27338718712447496 -0.418639995600238 0 0.49899725622330293 0.03165024931363668 0
          -0.37056785725930946 -0.3356776179107628 0 -0.05142560522984993 -0.4973483760169964 0
          -0.49915809446608755 -0.02900339168070537 0 -0.40548513195936553 -0.2925436852162356 0
          -0.4100383345751297 0.28612683232939545 0 0.297814333918933 -0.40162995718997635 0
          0.4866430874251437 0.11479767184627018 0 -0.31437437639413396 -0.3888042585502368 0
          0.49223502590218515 -0.08777630246869077 0 -0.16294886859691693 0.47270251345109715 0
          0.10528127127388073 -0.4887901941722599 0 -0.3903790773076958 -0.3124166704905359 0
          -0.4524917780520513 0.2127232728106944 0 0.4009148922209149 -0.2987762527301863 0
          -0.30571111156296255 0.39565226685428945 0 -0.34357128226373496 0.3632613026509333 0
          0.4619388458298468 0.19134393827186957 0 0.3555275435725487 0.35156815237058875 0
          0.41706108180784546 0.2757898729853394 0 -0.4064094369634003 0.29125825232444824 0
          -0.39980404409517467 0.30026109692256775 0 -0.49214563047732257 0.0882761485457916 0
          0.39108169520250485 0.3115366875305942 0 0.47294216036827447 0.16225200444428836 0
          -0.4257099583577388 -0.2622423141963408 0 0.005672906318026181 0.49996781709816773 0
          0.4527983175451362 -0.2120699970016833 0 0.4542041556150401 0.2090420651974823 0
          -0.25121771096209505 0.4323073694710342 0 0.4622282804430905 0.1906436905817334 0
          0.42727954413712554 -0.2596770901754142 0 -0.3699406651544684 -0.33636870286200754 0
          0.06480851812984523 0.4957820650021676 0 -0.45152049230285035 0.21477719858167357 0
          -0.1671598819023205 0.4712298524949393 0 0.23396878281668576 0.4418807629522681 0
          0.17146742061842635 -0.4696795968173023 0 -0.012693615715301646 0.49983884614950874 0
          0.2742562521937519 0.41807117591701676 0 0.12666540771213144 -0.4836898536139863 0
          <InformationKey name="L2_NORM_RANGE" location="vtkDataArray" length="2">
            <Value index="0">
              0.5
            </Value>
            <Value index="1">
              0.5
            </Value>
          </InformationKey>
        </DataArray>
        <DataArray type="Float64" Name="radius" format="ascii" RangeMin="1" RangeMax="1">
          1 1 1 1 1 1
          1 1 1 1 1 1
          1 1 1 1 1 1
          1 1 1 1 1 1
          1 1 1 1 1 1
          1 1 1 1 1 1
          1 1 1 1 1 1
          1 1 1 1 1 1
          1 1 1 1 1 1
          1 1 1 1 1 1
          1 1 1 1 1 1
          1 1 1 1 1 1
          1 1 1 1 1 1
          1 1 1 1 1 1
          1 1 1 1 1 1
          1 1 1 1 1 1
          1 1 1 1 1 1
          1 1 1 1 1 1
          1 1 1 1 1 1
          1 1 1 1 1 1
          1 1 1 1 1 1
          1 1 1 1 1 1
          1 1 1 1 1 1
          1 1 1 1 1 1
          1 1 1 1 1 1
          1 1 1 1
        </DataArray>
      </PointData>
      <CellData>
      </CellData>
      <Points>
        <DataArray type="Float32" Name="Points" NumberOfComponents="3" format="ascii" RangeMin="2.484626606582825" RangeMax="67.33901782466067">
          -37.71922302246094 34.09407043457031 0 46.643089294433594 -28.208566665649414 0
          -20.16065216064453 4.577291011810303 0 -31.301746368408203 50.08570098876953 0
          48.761539459228516 46.441959381103516 0 21.982702255249023 48.57514953613281 0
          -40.406368255615234 29.27643585205078 0 -19.45172691345215 -49.900634765625 0
          -39.18283462524414 13.478689193725586 0 37.64362716674805 0.38781091570854187 0
          29.343093872070312 -13.530840873718262 0 -28.938867568969727 17.915363311767578 0
          -10.924764633178711 23.5748291015625 0 -3.1775693893432617 -7.240829944610596 0
          -32.5035285949707 -19.799524307250977 0 28.635305404663086 -18.353891372680664 0
          36.743011474609375 -34.72151184082031 0 48.68739318847656 31.208545684814453 0
          -37.91147232055664 26.04831886291504 0 -1.3876358270645142 15.313005447387695 0
          -38.37705993652344 -27.935653686523438 0 -45.01639175415039 -45.59665298461914 0
          -9.11296558380127 -4.367779731750488 0 -1.5955549478530884 29.53445816040039 0
          41.549072265625 30.22438621520996 0 20.864927291870117 -50.37513732910156 0
          20.995973587036133 14.612565040588379 0 -4.518186569213867 27.22114372253418 0
          7.5821027755737305 37.544498443603516 0 30.516963958740234 -47.90906524658203 0
          32.722808837890625 32.77613830566406 0 43.67241668701172 -9.081198692321777 0
          -7.857699871063232 8.08936882019043 0 -34.04274368286133 26.372331619262695 0
          -26.70128059387207 31.482999801635742 0 49.3658332824707 -17.42123794555664 0
          -20.570383071899414 -48.31357192993164 0 -29.396595001220703 40.535675048828125 0
          34.095252990722656 45.25890350341797 0 27.57575225830078 49.4898681640625 0
          -42.73603057861328 29.42233657836914 0 9.482704162597656 23.818410873413086 0
          19.364852905273438 18.50816535949707 0 -10.840025901794434 6.056379795074463 0
          -29.841289520263672 2.419536590576172 0 -9.853564262390137 -14.775921821594238 0
          9.059662818908691 -13.524333953857422 0 46.52842712402344 -34.97486877441406 0
          -11.299551963806152 -12.094858169555664 0 22.338712692260742 -11.805171012878418 0
          42.4682731628418 -6.309560298919678 0 35.04259490966797 12.178979873657227 0
          -36.84197235107422 -2.299286365509033 0 -15.220185279846191 4.130520343780518 0
          21.899181365966797 48.1259765625 0 21.40979766845703 41.547550201416016 0
          1.1608351469039917 5.874582767486572 0 0.9545711874961853 -3.6205568313598633 0
          4.856561660766602 -5.8262505531311035 0 34.85536575317383 10.371336936950684 0
          1.1352674961090088 47.992897033691406 0 -47.09025192260742 47.4007682800293 0
          -14.344453811645508 17.270490646362305 0 -14.998895645141602 35.73964309692383 0
          -45.381168365478516 15.172553062438965 0 24.430408477783203 -36.25730514526367 0
          48.155296325683594 -40.525291442871094 0 -21.733144760131836 30.563344955444336 0
          -42.300567626953125 13.643000602722168 0 -48.741111755371094 18.905075073242188 0
          3.172438144683838 -6.0503950119018555 0 -30.000471115112305 -34.75735092163086 0
          -11.507664680480957 26.53302001953125 0 -46.87886428833008 -24.66901206970215 0
          1.3584187030792236 33.07520294189453 0 47.38601303100586 32.45069885253906 0
          -19.295743942260742 -44.026527404785156 0 -24.333820343017578 3.6521949768066406 0
          39.21820068359375 -15.180585861206055 0 -47.109378814697266 -33.425933837890625 0
          38.30098342895508 -29.832351684570312 0 -23.437673568725586 -0.28605079650878906 0
          -27.428619384765625 -0.6410602927207947 0 44.4942512512207 15.593855857849121 0
          26.52223777770996 -6.644181728363037 0 5.0026702880859375 -44.635032653808594 0
          -17.024335861206055 -8.537168502807617 0 40.377628326416016 31.164934158325195 0
          -24.37017059326172 -36.37343978881836 0 -1.7609010934829712 -11.537565231323242 0
          22.004714965820312 -21.02941131591797 0 11.63113784790039 31.497047424316406 0
          -18.726192474365234 -11.870635986328125 0 -14.96644115447998 31.337749481201172 0
          18.35334014892578 -12.191475868225098 0 -4.4279704093933105 -18.893613815307617 0
          40.595340728759766 -1.5377960205078125 0 26.13046646118164 -37.911155700683594 0
          -9.56496810913086 37.432594299316406 0 -12.984779357910156 41.93284606933594 0
          5.1714887619018555 -35.7479362487793 0 -29.376230239868164 44.97126007080078 0
          49.43858337402344 -26.83053207397461 0 -47.845706939697266 -11.464926719665527 0
          28.328645706176758 -3.2125279903411865 0 4.263535499572754 -48.549339294433594 0
          39.69499969482422 -29.55423355102539 0 39.12971115112305 -5.727855682373047 0
          -34.52794647216797 -26.16826820373535 0 28.99864387512207 -2.591618061065674 0
          -40.49761199951172 15.34028434753418 0 14.170668601989746 7.955168724060059 0
          21.661911010742188 -15.015515327453613 0 18.46804428100586 20.191591262817383 0
          -33.871910095214844 -36.63807678222656 0 -4.931416988372803 -46.02228546142578 0
          30.131282806396484 -32.881412506103516 0 32.58660125732422 -16.827518463134766 0
          15.821931838989258 -8.19859504699707 0 27.115610122680664 -38.41606903076172 0