<?xml version="1.0"?>
<VTKFile type="PolyData" version="0.1" byte_order="LittleEndian" header_type="UInt32" compressor="vtkZLibDataCompressor">
  <PolyData>
    <Piece NumberOfPoints="154" NumberOfVerts="0" NumberOfLines="0" NumberOfStrips="0" NumberOfPolys="0">
      <PointData>
        <DataArray type="Int32" Name="id" format="ascii" RangeMin="0" RangeMax="153">
          0 1 2 3 4 5
          6 7 8 9 10 11
          12 13 14 15 16 17
          18 19 20 21 22 23
          24 25 26 27 28 29
          30 31 32 33 34 35
          36 37 38 39 40 41
          42 43 44 45 46 47
          48 49 50 51 52 53
          54 55 56 57 58 59
          60 61 62 63 64 65
          66 67 68 69 70 71
          72 73 74 75 76 77
          78 79 80 81 82 83
          84 85 86 87 88 89
          90 91 92 93 94 95
          96 97 98 99 100 101
          102 103 104 105 106 107
          108 109 110 111 112 113
          114 115 116 117 118 119
          120 121 122 123 124 125
          126 127 128 129 130 131
          132 133 134 135 136 137
          138 139 140 141 142 143
          144 145 146 147 148 149
          150 151 152 153
        </DataArray>
        <DataArray type="Float64" Name="director" NumberOfComponents="3" format="ascii" RangeMin="0.9999999999999999" RangeMax="1">
          -0.8277131093657861 -0.5611515023449748 0 -0.05347137788616392 -0.9985693825403196 0
          -0.3757395818212516 -0.9267252919030488 0 -0.059490605635673155 0.9982288654617741 0
          -0.4842488134864037 0.8749303324476814 0 0.9005332783418172 0.4347870911135003 0
          0.9610792833218555 -0.2762727115904656 0 0.9148943861458233 0.4036932773763481 0
          0.9973257331687423 0.07308475873552998 0 -0.5242014043648104 -0.8515943210601867 0
          -0.7838323373770472 0.6209725170102417 0 -0.9787236529075406 -0.2051828726753773 0
          0.21991696612489178 -0.9755185943950136 0 -0.5364026474703076 0.8439622028188495 0
          0.8298567092469876 0.5579765605451189 0 0.9738767856378633 0.22707709350716848 0
          -0.7629398128962223 -0.6464695212443332 0 -0.9882070732897781 0.1531234152572724 0
          0.9505421416326089 -0.31059561648628164 0 -0.9965415823885175 0.0830955749158127 0
          0.8495985574450668 0.5274298922010976 0 0.8811896796906565 -0.4727628881444461 0
          -0.7430719578610673 -0.6692115251850645 0 0.6528243357997858 0.7575093310234327 0
          -0.9124091529199719 -0.40927929054358386 0 -0.6067172282531031 0.7949177347001839 0
          0.9783326966496587 -0.20703896895562188 0 0.9970924039122412 -0.07620195575251393 0
          -0.9772115516737202 -0.2122677160461292 0 -0.05250285507942192 -0.9986207739720365 0
          0.5765519088914722 0.8170605218425374 0 -0.9870924771535199 -0.16015130828977905 0
          -0.9985459860409551 0.05390652800446903 0 0.19898203530531675 0.9800031375591375 0
          0.8640626515962653 -0.5033842807601675 0 0.06404411853942642 0.9979470681757163 0
          0.5822392800366256 0.8130174787680963 0 -0.2437575072623402 -0.969836211766322 0
          -0.9945510077252733 -0.10425110566628755 0 0.9247847305907453 -0.38049073847625076 0
          -0.1718639709036483 0.9851206908319559 0 0.44629486006480246 -0.8948859692048694 0
          0.5477323351114797 -0.8366536255065926 0 -0.9954982239671798 -0.09478019876635979 0
          0.11908023615556197 0.992884634465221 0 -0.7268169978310446 0.6868311667825415 0
          0.7746900247735516 -0.6323411780964086 0 -0.5487205097702046 0.8360058625138503 0
          -0.25498012061965275 -0.9669462953488096 0 -0.9853473649192038 0.17055958034300317 0
          0.6375628926065421 -0.7703983112463181 0 0.740361295469258 -0.6722091580535645 0
          0.9749309237634133 -0.22250773894365475 0 0.3299807201414122 0.9439876717070806 0
          -0.39308906230022045 0.9195004019030842 0 -0.9833632792901431 0.18164983056346598 0
          -0.9900174522890487 -0.1409448266631347 0 0.5285362297665366 0.8489107454992986 0
          -0.5040483485587967 -0.8636754380640622 0 0.6828510636024575 -0.7305576123325199 0
          -0.9006512887778304 -0.4345425825196343 0 -0.5379488795970093 -0.8429774628899176 0
          -0.7498783927101103 -0.661575691925347 0 0.8647171992492639 -0.5022590619615627 0
          0.7574533674567865 -0.6528892678918642 0 -0.9772123730888528 -0.2122639344826457 0
          0.9751523319091359 -0.22153539124071014 0 -0.9928727025300338 -0.11917968187030424 0
          -0.7837759076014152 0.6210437397346324 0 0.991488700197689 -0.1301927700769028 0
          -0.38302805103881543 0.9237367114699981 0 -0.06050558931669203 0.9981678584594075 0
          -0.08695400919207844 0.9962123269089898 0 -0.04967886546597663 0.9987652428503975 0
          0.22152534961540304 -0.9751546131141325 0 -0.9215115210124122 -0.38835102245441633 0
          -0.9488485667528674 -0.3157315273630895 0 0.6490390169811532 -0.7607551212027023 0
          -0.5084305028467907 0.8611030273869438 0 0.5197413101943335 -0.8543236918624448 0
          -0.7193874053630781 0.6946090706325236 0 0.8947719858069373 -0.4465233402803374 0
          -0.5418278202643713 -0.8404895080770254 0 -0.9354981910521522 -0.3533314796874899 0
          -0.951417890933452 -0.307902576818938 0 0.13102246109802582 0.9913793999714823 0
          -0.943339398133536 -0.3318294440357246 0 0.42299668865329415 -0.9061312274656184 0
          0.9635113711335426 -0.2676674012582794 0 -0.14280418100204764 0.9897509615495882 0
          -0.467093928263501 -0.8842077030762463 0 -0.81541732092918 -0.5788735550434816 0
          -0.9424108695620206 -0.33445740077228997 0 0.26687514171539223 -0.9637311132958141 0
          0.472531594912369 0.881313730637151 0 0.9848854036723746 0.1732072216540164 0
          -0.9839166280396898 0.17862829861756713 0 0.9672749648976098 -0.25373045202010674 0
          -0.8996183670596116 -0.43667699006130134 0 0.8864378212707249 -0.4628476952743854 0
          -0.6090349366135209 0.7931433956001679 0 0.5449328115058065 -0.8384797140923429 0
          -0.7669490861751677 -0.6417079547699835 0 0.9004685015918567 -0.43492123153614426 0
          -0.7317260572970399 0.681598838813953 0 -0.958226734829148 0.28600965833109515 0
          0.9533970557032008 0.3017185015481615 0 0.5498105652402405 -0.8352893764140707 0
          0.40727989426058875 -0.9133033930360073 0 -0.9484803924383559 -0.3168358331375767 0
          -0.29388485500949746 0.9558408298435711 0 -0.1838923835589169 -0.9829463827030548 0
          0.3175090677364652 -0.9482552356328546 0 0.8879584703264857 -0.4599236403746252 0
          0.0021445264708963656 -0.999997700500464 0 0.14929550913445835 -0.9887926228245653 0
          -0.44715435221951666 -0.894456810187694 0 -0.8663355415451677 -0.4994624404854094 0
          -0.8570971467236423 0.51515481272933 0 0.444399522351181 -0.8958287026736987 0
          0.9555558669238222 0.2948100832526977 0 0.42938403226424193 -0.903122003295513 0
          0.11186175733364236 -0.9937237781427137 0 -0.03800004818596486 0.9992777373372552 0
          0.482686542462174 -0.8757931843340138 0 -0.27189560698844645 -0.9623267526679201 0
          -0.9782959058911286 -0.207212742167696 0 0.8785546753395592 -0.47764179301962434 0
          -0.8939582849643776 0.44815018101474496 0 -0.9795868514658799 0.20102139297886737 0
          0.4912817154649101 0.8710007325197007 0 0.7130751221735092 0.7010876337072527 0
          0.8573994409422322 0.5146515313024412 0 -0.9502874452892764 0.31137400553928773 0
          -0.9328758891968827 0.3601979668947695 0 -0.9311826969540944 -0.3645528561036098 0
          0.5753077098438462 0.8179370629787044 0 0.8361121062198879 0.5485586074728414 0
          -0.9182680559177724 -0.395959312911055 0 0.5316271711428182 0.8469784831403243 0
          0.22131532994140468 -0.9752022993886588 0 0.9997687809923035 0.021503128915661952 0
          -0.8194434173614691 0.5731600873603789 0 0.8929375227495373 0.45018060871823384 0
          0.9992576563582259 0.0385244884387268 0 -0.7521171767149223 -0.6590294018405964 0
          0.4398385595573683 0.898076857249144 0 -0.8439669498473602 0.5363951785440874 0
          -0.7930602708350084 0.609143174322017 0 0.6939803774396099 0.7199939136748147 0
          0.18788356614548496 -0.9821913080314115 0 0.21750711079212792 0.9760587363242342 0
          0.553809778352473 0.8326432185523309 0 0.19329410634191105 -0.9811408606583878 0
          <InformationKey name="L2_NORM_RANGE" location="vtkDataArray" length="2">
            <Value index="0">
              1
            </Value>
            <Value index="1">
              1
            </Value>
          </InformationKey>
        </DataArray>
        <DataArray type="Float64" Name="velocity" NumberOfComponents="3" format="ascii" RangeMin="2.98391528750295" RangeMax="65.61664053985334">
          20.472372037415383 -30.489259884928693 0 -7.778161120144524 43.605506408926914 0
          -35.778279556590725 14.318100471258902 0 -2.7267860528004704 -6.306708942777526 0
          -25.56803597993237 0.5919415230237348 0 40.69440930810454 -42.34960265147567 0
          21.390392053252754 11.720491675449018 0 -31.091580543867785 -10.301819378431787 0
          -22.233594277397 35.80993014386058 0 40.8936574712134 11.727908496204755 0
          -31.918129728714472 1.502371966558826 0 32.46317064138093 -14.067556233339687 0
          31.61170207931397 -20.66117562390716 0 -32.788218903188394 -0.7210412736466054 0
          -30.467523066969363 36.43074923190564 0 -29.58028331655805 11.627227611362315 0
          37.80505508071815 -10.753091333426255 0 44.65772551607054 -33.330173144632525 0
          47.18774005931614 6.396489460552942 0 9.836891189866492 -36.87781496106794 0
          6.677739541459459 5.438027088135769 0 -18.951003944933063 -37.93510690561732 0
          23.77908201111339 -25.727634747998636 0 32.285914726045576 -31.45240287607238 0
          -18.732306147503376 38.172541468590836 0 17.42129460906331 23.929755673071398 0
          -43.74567596165927 -36.843843838172035 0 -41.00470913383489 -49.1685554695042 0
          -4.3489588147394045 13.430332075080756 0 2.9762992276979077 -0.21305715242312573 0
          -16.420210149222868 -24.717665071237764 0 -26.63245586108499 -32.68369682188443 0
          9.59810303037343 22.68931438280859 0 37.757309281314306 20.71597266757422 0
          -26.523439665569285 -2.200425364398683 0 -48.17882370239545 24.733119867345934 0
          15.472358145094617 -42.19330576503555 0 -2.7230899171649696 49.647506705142575 0
          3.209752212846098 39.943600631846664 0 27.290092728339346 -29.624030405099575 0
          40.710862227344634 -12.518743865476708 0 34.808888796398136 -17.330075407408792 0
          -17.326333983387784 15.921061981020685 0 8.676498234140595 -45.101679767889145 0
          26.99656655139428 -0.8247828969564566 0 -1.181598492863479 -7.087342925864128 0
          -10.527228461045638 27.645380145270124 0 47.47543864880045 24.850515939083976 0
          13.45020038299144 -42.781974126121774 0 13.33632968921519 2.89206325620421 0
          -20.383234879262602 -17.467213088655853 0 13.111992425538233 49.45054225750374 0
          1.6047826830209004 22.445391370448775 0 -25.442525168919026 -16.766088433362327 0
          24.860911549332883 18.296648546241826 0 18.127137052491975 -42.11576276898946 0
          -4.106371249565804 19.81468592825003 0 -43.2115168522386 -43.085994704941484 0
          2.7042817825837204 -23.795120132132308 0 -1.6624837545658195 -36.91945356486498 0
          -40.55592314206473 -37.96183180819797 0 46.98372058379586 25.62816454897687 0
          -23.182362140209666 22.4905983535036 0 -8.42374893276238 -2.5281598168396826 0
          -44.45585735866184 11.374414308737222 0 -0.9380815156004232 40.44748670579848 0
          43.5214270198436 41.82766196839604 0 -19.617472876146607 29.010177679462174 0
          -27.377259211045168 -5.104813753149479 0 1.0108912986547693 -26.93680745999526 0
          21.18807799653547 48.4452609761332 0 15.521324819791857 -22.733301715898534 0
          -3.0984436752635744 -49.699879474370995 0 -5.357606698271908 47.09441502974741 0
          -19.533649987483585 -28.48909553641595 0 -25.241492794096537 30.645102659141713 0
          -1.3628901407151872 -9.249808436218693 0 -28.437070584076316 4.0252086974848424 0
          22.302423751473526 -21.630608392707323 0 4.286209731170565 25.592468486596516 0
          -16.80227135673981 30.176297340482108 0 35.70724318896097 -48.51082997011254 0
          38.494266527440914 9.308694076898924 0 -41.37827709570729 42.48759424258512 0
          41.371957205314274 48.07567751376408 0 40.00221093710812 44.971458396046486 0
          43.45219546574209 -49.16757290067578 0 27.77940311086799 -47.40411222574361 0
          8.787704962513757 14.978077069606684 0 -17.176354508003442 -38.89206379839693 0
          -37.572734230027905 47.39150589914381 0 3.322947059262674 16.230028184641725 0
          20.82576325094061 -43.12614201683975 0 -29.404442159877867 -6.6570323329381935 0
          -48.88074135310182 -43.07374742736768 0 -15.693819004659524 -18.776991949103287 0
          49.2742614956165 -23.093566379026992 0 35.70662412955289 -14.438908494432013 0
          24.676827977366614 34.48562696853686 0 -28.28613766609157 46.49521791482232 0
          21.219265309149932 48.266786794162286 0 25.989900495501132 -30.673962513745963 0
          -14.741048879365302 -30.369965831724773 0 33.206792723445574 45.25947670903301 0
          26.73700517552618 36.1968809297727 0 -4.433626259916984 -16.731616061562868 0
          33.82599634129042 5.430878965379037 0 -37.91344272052366 -28.781627030961573 0
          -0.8760744559602713 -9.034520229977083 0 25.951148963832622 -14.29357740625877 0
          27.17860558051683 48.15404052238152 0 34.61617221348607 33.462162550860555 0
          -13.28055184508198 -44.93740558320786 0 47.55616001461492 34.25892934866374 0
          36.946038841117556 -42.45015674570037 0 -46.76239316488481 11.393180618063838 0
          23.568028568935404 11.552780427737098 0 16.263007945057282 45.12644264060411 0
          -23.411248530157515 41.93857265065735 0 -38.160345232049345 -18.69342940760771 0
          37.21153998486223 -26.635630373860984 0 30.80584946405935 5.653176675427417 0
          44.35923105765637 0.370346282237378 0 16.64168251311186 -34.7034267378138 0
          47.322877480901255 13.376690736606477 0 -32.1350217035443 -42.58571958176201 0
          -0.5025219679409361 28.59799073613067 0 -3.5320261053794297 38.30316610148137 0
          14.736889949280638 40.32409694969634 0 -49.402638529229115 19.356180838194604 0
          8.508964450503598 -39.46387075781778 0 49.03198966734128 -27.000797471280585 0
          -16.70921662991016 18.938285128010065 0 46.14207459237997 -27.3400906744995 0
          42.424140585792586 37.62461911345025 0 -6.825547086494495 -2.911259141055119 0
          6.210247997996007 33.76154121673389 0 -35.16911208657487 13.927818279591207 0
          49.5593687100304 13.93941034113417 0 -6.0481675260535965 -47.161165000275155 0
          -41.68490984500472 3.0367185203014984 0 28.200151364646487 23.664522522360798 0
          -30.983903256438072 -23.817273645282434 0 -4.775523168997552 -3.9973115200368454 0
          17.36371431475763 -32.304692769073746 0 -31.21691646176371 -40.35131875297581 0
          -17.61253928181918 -32.96735050248542 0 -47.52659271635095 33.064298464373394 0
          -25.51716157275273 -35.79649925661745 0 -34.4558032257712 -19.698927528483058 0
          -46.64276824331557 -9.071061809886274 0 28.312364537561464 -5.662808823633235 0
          -48.25117889494449 -21.421563451189467 0 45.139670111270334 -32.86849758057289 0
          <InformationKey name="L2_NORM_RANGE" location="vtkDataArray" length="2">
            <Value index="0">
              2.9839152875
            </Value>
            <Value index="1">
              65.61664054
            </Value>
          </InformationKey>
        </DataArray>
        <DataArray type="Float64" Name="force" NumberOfComponents="3" format="ascii" RangeMin="0.49999999999999994" RangeMax="0.5">
          -0.41385655468289306 -0.2805757511724874 0 -0.02673568894308196 -0.4992846912701598 0
          -0.1878697909106258 -0.4633626459515244 0 -0.029745302817836577 0.49911443273088707 0
          -0.24212440674320185 0.4374651662238407 0 0.4502666391709086 0.21739354555675014 0
          0.4805396416609278 -0.1381363557952328 0 0.45744719307291165 0.20184663868817404 0
          0.49866286658437114 0.03654237936776499 0 -0.2621007021824052 -0.42579716053009337 0
          -0.3919161686885236 0.31048625850512085 0 -0.4893618264537703 -0.10259143633768865 0
          0.10995848306244589 -0.4877592971975068 0 -0.2682013237351538 0.42198110140942474 0
          0.4149283546234938 0.27898828027255945 0 0.48693839281893164 0.11353854675358424 0
          -0.38146990644811113 -0.3232347606221666 0 -0.49410353664488904 0.0765617076286362 0
          0.47527107081630443 -0.15529780824314082 0 -0.49827079119425877 0.04154778745790635 0
          0.4247992787225334 0.2637149461005488 0 0.44059483984532827 -0.23638144407222306 0
          -0.37153597893053364 -0.3346057625925323 0 0.3264121678998929 0.3787546655117163 0
          -0.45620457645998597 -0.20463964527179193 0 -0.3033586141265516 0.39745886735009195 0
          0.48916634832482936 -0.10351948447781094 0 0.4985462019561206 -0.038100977876256964 0
          -0.4886057758368601 -0.1061338580230646 0 -0.02625142753971096 -0.49931038698601826 0
          0.2882759544457361 0.4085302609212687 0 -0.49354623857675994 -0.08007565414488953 0
          -0.49927299302047756 0.026953264002234516 0 0.09949101765265837 0.49000156877956874 0
          0.43203132579813264 -0.25169214038008375 0 0.03202205926971321 0.49897353408785816 0
          0.2911196400183128 0.40650873938404813 0 -0.1218787536311701 -0.484918105883161 0
          -0.49727550386263664 -0.052125552833143775 0 0.46239236529537264 -0.19024536923812538 0
          -0.08593198545182415 0.49256034541597793 0 0.22314743003240123 -0.4474429846024347 0
          0.27386616755573984 -0.4183268127532963 0 -0.4977491119835899 -0.047390099383179896 0
          0.059540118077780986 0.4964423172326105 0 -0.3634084989155223 0.34341558339127076 0
          0.3873450123867758 -0.3161705890482043 0 -0.2743602548851023 0.41800293125692517 0
          -0.12749006030982638 -0.4834731476744048 0 -0.4926736824596019 0.08527979017150158 0
          0.31878144630327104 -0.38519915562315904 0 0.370180647734629 -0.33610457902678226 0
          0.48746546188170664 -0.11125386947182737 0 0.1649903600707061 0.4719938358535403 0
          -0.19654453115011022 0.4597502009515421 0 -0.49168163964507156 0.09082491528173299 0
          -0.49500872614452435 -0.07047241333156735 0 0.2642681148832683 0.4244553727496493 0
          -0.2520241742793983 -0.4318377190320311 0 0.34142553180122875 -0.36527880616625996 0
          -0.4503256443889152 -0.21727129125981715 0 -0.26897443979850466 -0.4214887314449588 0
          -0.3749391963550551 -0.3307878459626735 0 0.43235859962463197 -0.25112953098078133 0
          0.37872668372839324 -0.3264446339459321 0 -0.4886061865444264 -0.10613196724132284 0
          0.48757616595456793 -0.11076769562035507 0 -0.4964363512650169 -0.05958984093515212 0
          -0.3918879538007076 0.3105218698673162 0 0.4957443500988445 -0.0650963850384514 0
          -0.19151402551940772 0.46186835573499907 0 -0.030252794658346016 0.49908392922970374 0
          -0.04347700459603922 0.4981061634544949 0 -0.024839432732988314 0.49938262142519874 0
          0.11076267480770152 -0.48757730655706627 0 -0.4607557605062061 -0.19417551122720816 0
          -0.4744242833764337 -0.15786576368154476 0 0.3245195084905766 -0.38037756060135114 0
          -0.25421525142339535 0.4305515136934719 0 0.2598706550971667 -0.4271618459312224 0
          -0.35969370268153905 0.3473045353162618 0 0.44738599290346864 -0.2232616701401687 0
          -0.27091391013218563 -0.4202447540385127 0 -0.4677490955260761 -0.17666573984374495 0
          -0.475708945466726 -0.153951288409469 0 0.06551123054901291 0.49568969998574114 0
          -0.471669699066768 -0.1659147220178623 0 0.21149834432664708 -0.4530656137328092 0
          0.4817556855667713 -0.1338337006291397 0 -0.07140209050102382 0.4948754807747941 0
          -0.2335469641317505 -0.44210385153812315 0 -0.40770866046459 -0.2894367775217408 0
          -0.4712054347810103 -0.16722870038614499 0 0.13343757085769611 -0.48186555664790703 0
          0.2362657974561845 0.4406568653185755 0 0.4924427018361873 0.0866036108270082 0
          -0.4919583140198449 0.08931414930878356 0 0.4836374824488049 -0.12686522601005337 0
          -0.4498091835298058 -0.21833849503065067 0 0.44321891063536245 -0.2314238476371927 0
          -0.30451746830676046 0.39657169780008394 0 0.27246640575290326 -0.41923985704617145 0
          -0.38347454308758383 -0.3208539773849918 0 0.4502342507959283 -0.21746061576807213 0
          -0.36586302864851994 0.3407994194069765 0 -0.479113367414574 0.14300482916554758 0
          0.4766985278516004 0.15085925077408074 0 0.27490528262012026 -0.4176446882070354 0
          0.20363994713029437 -0.45665169651800364 0 -0.47424019621917796 -0.15841791656878834 0
          -0.14694242750474873 0.47792041492178555 0 -0.09194619177945845 -0.4914731913515274 0
          0.1587545338682326 -0.4741276178164273 0 0.44397923516324284 -0.2299618201873126 0
          0.0010722632354481828 -0.499998850250232 0 0.07464775456722918 -0.49439631141228263 0
          -0.22357717610975833 -0.447228405093847 0 -0.43316777077258384 -0.2497312202427047 0
          -0.4285485733618212 0.257577406364665 0 0.2221997611755905 -0.44791435133684937 0
          0.4777779334619111 0.14740504162634885 0 0.21469201613212097 -0.4515610016477565 0
          0.05593087866682118 -0.49686188907135687 0 -0.01900002409298243 0.4996388686686276 0
          0.241343271231087 -0.4378965921670069 0 -0.13594780349422322 -0.48116337633396006 0
          -0.4891479529455643 -0.103606371083848 0 0.4392773376697796 -0.23882089650981217 0
          -0.4469791424821888 0.22407509050737248 0 -0.48979342573293994 0.10051069648943368 0
          0.24564085773245506 0.43550036625985034 0 0.3565375610867546 0.35054381685362634 0
          0.4286997204711161 0.2573257656512206 0 -0.4751437226446382 0.15568700276964387 0
          -0.46643794459844135 0.18009898344738476 0 -0.4655913484770472 -0.1822764280518049 0
          0.2876538549219231 0.4089685314893522 0 0.4180560531099439 0.2742793037364207 0
          -0.4591340279588862 -0.1979796564555275 0 0.2658135855714091 0.42348924157016216 0
          0.11065766497070234 -0.4876011496943294 0 0.49988439049615174 0.010751564457830976 0
          -0.40972170868073454 0.28658004368018947 0 0.44646876137476865 0.22509030435911692 0
          0.49962882817911297 0.0192622442193634 0 -0.37605858835746114 -0.3295147009202982 0
          0.21991927977868414 0.449038428624572 0 -0.4219834749236801 0.2681975892720437 0
          -0.3965301354175042 0.3045715871610085 0 0.34699018871980497 0.35999695683740734 0
          0.09394178307274248 -0.49109565401570576 0 0.10875355539606396 0.4880293681621171 0
          0.2769048891762365 0.41632160927616546 0 0.09664705317095552 -0.4905704303291939 0
          <InformationKey name="L2_NORM_RANGE" location="vtkDataArray" length="2">
            <Value index="0">
              0.5
            </Value>
            <Value index="1">
              0.5
            </Value>
          </InformationKey>
        </DataArray>
        <DataArray type="Float64" Name="radius" format="ascii" RangeMin="1" RangeMax="1">
          1 1 1 1 1 1
          1 1 1 1 1 1
          1 1 1 1 1 1
          1 1 1 1 1 1
          1 1 1 1 1 1
          1 1 1 1 1 1
          1 1 1 1 1 1
          1 1 1 1 1 1
          1 1 1 1 1 1
          1 1 1 1 1 1
          1 1 1 1 1 1
          1 1 1 1 1 1
          1 1 1 1 1 1
          1 1 1 1 1 1
          1 1 1 1 1 1
          1 1 1 1 1 1
          1 1 1 1 1 1
          1 1 1 1 1 1
          1 1 1 1 1 1
          1 1 1 1 1 1
          1 1 1 1 1 1
          1 1 1 1 1 1
          1 1 1 1 1 1
          1 1 1 1 1 1
          1 1 1 1 1 1
          1 1 1 1
        </DataArray>
      </PointData>
      <CellData>
      </CellData>
      <Points>
        <DataArray type="Float32" Name="Points" NumberOfComponents="3" format="ascii" RangeMin="1.7636087749178837" RangeMax="68.01077729990844">
          -36.951725006103516 33.593074798583984 0 47.11677551269531 -27.710411071777344 0
          -19.15645408630371 4.615835666656494 0 -30.821739196777344 49.35304260253906 0
          49.581417083740234 46.55264663696289 0 22.824230194091797 48.209957122802734 0
          -39.082340240478516 29.778690338134766 0 -20.063129425048828 -49.5186882019043 0
          -38.259456634521484 13.651667594909668 0 37.70127487182617 0.23482170701026917 0
          29.752395629882812 -13.665584564208984 0 -28.541093826293945 18.149812698364258 0
          -10.158132553100586 23.854507446289062 0 -2.6577701568603516 -7.9687323570251465 0
          -32.72665023803711 -19.390153884887695 0 29.648191452026367 -18.760377883911133 0
          37.13642883300781 -35.42385482788086 0 49.163970947265625 31.95929527282715 0
          -37.48701095581055 26.263729095458984 0 -1.0122992992401123 15.97761058807373 0
          -37.52919387817383 -28.992162704467773 0 -45.12797546386719 -46.3836784362793 0
          -8.92445182800293 -4.088685035705566 0 -1.2740023136138916 29.304431915283203 0
          42.08876037597656 30.835493087768555 0 20.931772232055664 -49.605308532714844 0
          20.592731475830078 14.272543907165527 0 -4.303798198699951 27.311237335205078 0
          7.3743085861206055 37.7112922668457 0 30.974477767944336 -47.89069366455078 0
          32.07258224487305 32.194732666015625 0 43.99897384643555 -8.489412307739258 0
          -7.85799503326416 8.144411087036133 0 -34.180030822753906 26.034664154052734 0
          -26.400623321533203 30.613317489624023 0 48.95847702026367 -16.896892547607422 0
          -20.090755462646484 -48.46641540527344 0 -28.554889678955078 40.633296966552734 0
          34.96804428100586 45.40575408935547 0 27.87346839904785 48.88059997558594 0
          -43.213985443115234 29.2098388671875 0 9.302541732788086 23.363971710205078 0
          19.338472366333008 17.70966911315918 0 -10.577277183532715 6.115438938140869 0
          -29.25824737548828 2.537677049636841 0 -9.470691680908203 -14.991323471069336 0
          9.7612886428833 -14.243975639343262 0 46.773433685302734 -34.44366455078125 0
          -10.644137382507324 -11.480337142944336 0 22.660247802734375 -11.310032844543457 0
          42.84562301635742 -5.9978485107421875 0 36.022396087646484 11.824308395385742 0
          -37.700374603271484 -2.4602649211883545 0 -16.007436752319336 3.071953773498535 0
          21.581815719604492 48.91733169555664 0 21.995018005371094 41.30588912963867 0
          0.3862805664539337 6.055734157562256 0 0.5565502047538757 -3.7271997928619385 0
          4.6881256103515625 -5.273669719696045 0 35.286563873291016 10.296248435974121 0
          0.17241014540195465 47.542781829833984 0 -46.80249786376953 47.810420989990234 0
          -13.54549789428711 17.779865264892578 0 -14.89712905883789 35.53801727294922 0
          -45.34604263305664 16.023115158081055 0 24.97991180419922 -36.63139724731445 0
          48.65363311767578 -40.36952209472656 0 -21.906660079956055 30.27312469482422 0
          -42.55422592163086 12.642008781433105 0 -49.41106033325195 18.01728630065918 0
          3.3027374744415283 -6.085829734802246 0 -29.82721519470215 -36.002437591552734 0
          -11.792556762695312 26.419801712036133 0 -45.72999954223633 -24.603580474853516 0
          0.5816621780395508 32.801204681396484 0 48.332828521728516 32.439308166503906 0
          -19.621009826660156 -44.869346618652344 0 -25.120441436767578 4.073734283447266 0
          38.811683654785156 -15.684490203857422 0 -47.053192138671875 -33.657737731933594 0
          37.89497375488281 -29.034137725830078 0 -22.920703887939453 -0.7853999137878418 0
          -27.545406341552734 -0.8810935020446777 0 45.2844352722168 15.26082992553711 0
          25.678512573242188 -6.488593101501465 0 5.37136697769165 -44.5347900390625 0
          -17.619842529296875 -9.780887603759766 0 40.72119140625 30.905027389526367 0
          -24.12432098388672 -36.76337814331055 0 -0.9700397253036499 -11.882272720336914 0
          21.556474685668945 -21.427350997924805 0 12.250877380371094 31.027475357055664 0
          -18.81505584716797 -11.923052787780762 0 -15.667216300964355 31.405031204223633 0
          16.999876022338867 -12.09717845916748 0 -4.310699462890625 -19.838720321655273 0
          40.830238342285156 -0.9908241033554077 0 25.719005584716797 -39.057891845703125 0
          -10.680097579956055 36.95046615600586 0 -14.126411437988281 41.73037338256836 0
          4.639540195465088 -35.8277702331543 0 -29.85948371887207 45.157867431640625 0
          48.94956588745117 -25.973682403564453 0 -48.32453536987305 -11.248393058776855 0
          28.060794830322266 -2.058058977127075 0 4.04681396484375 -48.20179748535156 0
          40.077701568603516 -30.351049423217773 0 38.90506362915039 -5.75836181640625 0
          -34.89338302612305 -25.93844985961914 0 29.85116958618164 -2.870590925216675 0
          -41.23355484008789 14.266908645629883 0 13.468977928161621 8.236031532287598 0
          22.788360595703125 -14.6922607421875 0 18.0020751953125 21.129592895507812 0
          -33.58345413208008 -36.80345916748047 0 -5.154748916625977 -45.87827682495117 0
          29.788551330566406 -33.47285079956055 0 33.497222900390625 -17.319683074951172 0
          15.688166618347168 -8.198290824890137 0 27.825544357299805 -38.88642501831055 0