<?xml version="1.0"?>
<VTKFile type="PolyData" version="0.1" byte_order="LittleEndian" header_type="UInt32" compressor="vtkZLibDataCompressor">
  <PolyData>
    <Piece NumberOfPoints="154" NumberOfVerts="0" NumberOfLines="0" NumberOfStrips="0" NumberOfPolys="0">
      <PointData>
        <DataArray type="Int32" Name="id" format="ascii" RangeMin="0" RangeMax="153">
          0 1 2 3 4 5
          6 7 8 9 10 11
          12 13 14 15 16 17
          18 19 20 21 22 23
          24 25 26 27 28 29
          30 31 32 33 34 35
          36 37 38 39 40 41
          42 43 44 45 46 47
          48 49 50 51 52 53
          54 55 56 57 58 59
          60 61 62 63 64 65
          66 67 68 69 70 71
          72 73 74 75 76 77
          78 79 80 81 82 83
          84 85 86 87 88 89
          90 91 92 93 94 95
          96 97 98 99 100 101
          102 103 104 105 106 107
          108 109 110 111 112 113
          114 115 116 117 118 119
          120 121 122 123 124 125
          126 127 128 129 130 131
          132 133 134 135 136 137
          138 139 140 141 142 143
          144 145 146 147 148 149
          150 151 152 153
        </DataArray>
        <DataArray type="Float64" Name="director" NumberOfComponents="3" format="ascii" RangeMin="0.9999999999999999" RangeMax="1">
          -0.826489417038067 -0.5629522568780376 0 -0.0637414590634293 -0.9979664455263338 0
          -0.3860879433510374 -0.9224619775356414 0 -0.053213792166369074 0.9985831424189348 0
          -0.5068297871346034 0.8620461512431296 0 0.8898664661085591 0.4562210785304253 0
          0.9699310703769036 -0.2433797828857486 0 0.9212105168618634 0.38906449802455434 0
          0.9939574121302606 0.10976640137726734 0 -0.5896759156882821 -0.8076399658617607 0
          -0.7706920386755945 0.6372078008954817 0 -0.9905241208003094 -0.13733887327619254 0
          0.18465075000623696 -0.9828042025358531 0 -0.5191202916185652 0.8547011892058276 0
          0.8550215812143119 0.5185924176632144 0 0.9780858352016889 0.20820206285677048 0
          -0.7341230570558931 -0.6790164483272183 0 -0.9810677754588351 0.19366471014682246 0
          0.9712829290500108 -0.23792745057271494 0 -0.9999139748924726 0.013116509243532587 0
          0.8696022237613542 0.49375294675506254 0 0.852842029864131 -0.5221690072162735 0
          -0.7198312557199239 -0.6941490929826802 0 0.6652739992307747 0.7465992940979058 0
          -0.9157257007874597 -0.4018039832024016 0 -0.5888399134298734 0.8082496868863601 0
          0.9721862477517361 -0.23420909393616618 0 0.9988184199294606 -0.048597983596191496 0
          -0.9758956407070896 -0.21823771087715133 0 -0.11333469151319875 -0.9935568668675226 0
          0.4985724429105117 0.8668480369535623 0 -0.9896864278149873 -0.14325074030806975 0
          -0.9997975868325923 0.020119278409650006 0 0.15088898804248976 0.9885507135638077 0
          0.8478539943032437 -0.5302297656149031 0 0.0027912636180759194 0.9999961044161194 0
          0.5573586510991708 0.8302718434614731 0 -0.3188582162801315 -0.9478024255669811 0
          -0.9913434764004984 -0.1312939899545088 0 0.9313377937798035 -0.3641564414882266 0
          -0.19694815267613866 0.9804139050204543 0 0.4763479192413527 -0.8792568793216426 0
          0.5918306957409646 -0.8060622975792664 0 -0.9914380264158489 -0.13057809838041917 0
          0.08009688307404494 0.9967870832438704 0 -0.6986594945486134 0.7154543386387953 0
          0.7110090192375534 -0.7031828884172683 0 -0.5645858473716379 0.8253743520049854 0
          -0.2800081943208004 -0.959997609951819 0 -0.9833321817709613 0.1818180967163641 0
          0.6494828334103672 -0.7603762549588469 0 0.7726413574709309 -0.634842762206105 0
          0.9827295408669958 -0.1850476952229983 0 0.36374371500500424 0.9314990659116938 0
          -0.3518385380975387 0.9360607048206793 0 -0.9805769277029341 0.19613487414703845 0
          -0.997924994586975 -0.06438715072579278 0 0.5363443562018733 0.8439992485603278 0
          -0.47837052238330635 -0.8781580969932024 0 0.6861974796577742 -0.7274153001630627 0
          -0.8738465976614277 -0.4862017315431393 0 -0.5828402452461348 -0.8125867636883002 0
          -0.7917087972589733 -0.6108986661818391 0 0.7918284721413478 -0.6107435392259984 0
          0.8061172690503582 -0.5917558183396193 0 -0.962914953303458 -0.2698051013316821 0
          0.9817852364081178 -0.18999407772627075 0 -0.999876986631024 -0.015684757112023186 0
          -0.7527212100175618 0.658339410934586 0 0.9954962115780307 -0.09480133297474606 0
          -0.44383361905730234 0.8961092113099259 0 -0.04301164079653991 0.9990745711687339 0
          -0.05673263664736888 0.9983894069645559 0 -0.05229412697990172 0.9986317260549106 0
          0.26572765956215577 -0.9640481372543692 0 -0.9572936469896216 -0.28911740423798393 0
          -0.9413741012607717 -0.337364493501427 0 0.6583896257224795 -0.7526772885779226 0
          -0.49225469032560915 0.8704512162392782 0 0.545180058045756 -0.838318975276849 0
          -0.6976302908346029 0.71645793826995 0 0.9031339427407953 -0.4293589191684109 0
          -0.5494838474886904 -0.8355043395153766 0 -0.9458332756382214 -0.32465276018458905 0
          -0.9505398185066982 -0.31060272605573386 0 0.14904483527604456 0.988830438992215 0
          -0.926185524319765 -0.37706812983931953 0 0.46493603025134433 -0.885344276411228 0
          0.9756625447115616 -0.2192774471918171 0 -0.13736135459983906 0.9905210034433886 0
          -0.4184316580887577 -0.9082482851671634 0 -0.7986974279511787 -0.601732846522584 0
          -0.9709579461476201 -0.239250217999473 0 0.34346150856222785 -0.9391667541689062 0
          0.427659386617819 0.9039399587570354 0 0.9876498446433183 0.15667732566019024 0
          -0.9836148706044945 0.18028251808121476 0 0.9635933192532733 -0.26737224068788307 0
          -0.9143483790545537 -0.40492844024631086 0 0.8937889207904494 -0.4484878650222811 0
          -0.5850927672385376 0.8109663702800199 0 0.496413968707098 -0.8680859241299034 0
          -0.8090741812398488 -0.5877065332724049 0 0.9073646859893045 -0.4203442953336357 0
          -0.7374015142093308 0.6754546667555019 0 -0.9574147825009253 0.2887160096854795 0
          0.9219617205001839 0.38728101674667814 0 0.5860646989783657 -0.8102642585054568 0
          0.41140664975181995 -0.911451901385906 0 -0.9557009203640277 -0.29433951623142696 0
          -0.2644237501503844 0.9644065949361852 0 -0.1928611334584997 -0.9812260612117387 0
          0.22300362893629228 -0.9748176144701348 0 0.8916915140835637 -0.45264361666918684 0
          0.011475043540851639 -0.9999341595203834 0 0.10900011612451253 -0.9940417368927941 0
          -0.45850484629730026 -0.8886919071995024 0 -0.8493674813911366 -0.5278019340200235 0
          -0.8569505956631137 0.5153985609144002 0 0.4019422802624754 -0.9156650060679405 0
          0.9631289998042621 0.269040015120505 0 0.44616527032378794 -0.8949505860978589 0
          0.2255673212095352 -0.9742275830638109 0 -0.06502811884773609 0.997883431949406 0
          0.5007226179724055 -0.865607797937877 0 -0.26938500019161976 -0.9630325652187266 0
          -0.9897005971502097 -0.14315281345652378 0 0.8422727282967364 -0.5390516219877017 0
          -0.8977801164832436 0.44044393791643166 0 -0.9780291067381244 0.20846838219026553 0
          0.4611635753743345 0.8873151394786187 0 0.7565052727850662 0.653987593344394 0
          0.856528356300618 0.5160999659493901 0 -0.9365333696973143 0.35057844691793827 0
          -0.9409476676526763 0.338552044358011 0 -0.9348834730329606 -0.35495477437249623 0
          0.515506145187948 0.8568858817097305 0 0.7821160091301558 0.6231328496093895 0
          -0.9004471082463607 -0.43496552191037713 0 0.5733137101969271 0.8193359443477589 0
          0.18580934900557122 -0.9825858160090272 0 0.9997972117054381 -0.020137911163560236 0
          -0.8366411597093406 0.547751375972904 0 0.9074606279206022 0.4201371309155457 0
          0.9973964564940415 0.07211316504723342 0 -0.7171168130069148 -0.6969529944715107 0
          0.4138186369912205 0.9103593442584793 0 -0.822506149491591 0.5687562167119729 0
          -0.791547865382723 0.6111071729312744 0 0.715648598335033 0.6984605097649419 0
          0.17177881334878148 -0.9851355436103625 0 0.21848252721138356 0.9758408606444634 0
          0.5565152154341213 0.8308374179045582 0 0.18379937584662545 -0.9829637782941907 0
          <InformationKey name="L2_NORM_RANGE" location="vtkDataArray" length="2">
            <Value index="0">
              1
            </Value>
            <Value index="1">
              1
            </Value>
          </InformationKey>
        </DataArray>
        <DataArray type="Float64" Name="velocity" NumberOfComponents="3" format="ascii" RangeMin="2.98391528750295" RangeMax="65.61664053985334">
          20.472372037415383 -30.489259884928693 0 -7.778161120144524 43.605506408926914 0
          -35.778279556590725 14.318100471258902 0 -2.7267860528004704 -6.306708942777526 0
          -25.56803597993237 0.5919415230237348 0 40.69440930810454 -42.34960265147567 0
          21.390392053252754 11.720491675449018 0 -31.091580543867785 -10.301819378431787 0
          -22.233594277397 35.80993014386058 0 40.8936574712134 11.727908496204755 0
          -31.918129728714472 1.502371966558826 0 32.46317064138093 -14.067556233339687 0
          31.61170207931397 -20.66117562390716 0 -32.788218903188394 -0.7210412736466054 0
          -30.467523066969363 36.43074923190564 0 -29.58028331655805 11.627227611362315 0
          37.80505508071815 -10.753091333426255 0 44.65772551607054 -33.330173144632525 0
          47.18774005931614 6.396489460552942 0 9.836891189866492 -36.87781496106794 0
          6.677739541459459 5.438027088135769 0 -18.951003944933063 -37.93510690561732 0
          23.77908201111339 -25.727634747998636 0 32.285914726045576 -31.45240287607238 0
          -18.732306147503376 38.172541468590836 0 17.42129460906331 23.929755673071398 0
          -43.74567596165927 -36.843843838172035 0 -41.00470913383489 -49.1685554695042 0
          -4.3489588147394045 13.430332075080756 0 2.9762992276979077 -0.21305715242312573 0
          -16.420210149222868 -24.717665071237764 0 -26.63245586108499 -32.68369682188443 0
          9.59810303037343 22.68931438280859 0 37.757309281314306 20.71597266757422 0
          -26.523439665569285 -2.200425364398683 0 -48.17882370239545 24.733119867345934 0
          15.472358145094617 -42.19330576503555 0 -2.7230899171649696 49.647506705142575 0
          3.209752212846098 39.943600631846664 0 27.290092728339346 -29.624030405099575 0
          40.710862227344634 -12.518743865476708 0 34.808888796398136 -17.330075407408792 0
          -17.326333983387784 15.921061981020685 0 8.676498234140595 -45.101679767889145 0
          26.99656655139428 -0.8247828969564566 0 -1.181598492863479 -7.087342925864128 0
          -10.527228461045638 27.645380145270124 0 47.47543864880045 24.850515939083976 0
          13.45020038299144 -42.781974126121774 0 13.33632968921519 2.89206325620421 0
          -20.383234879262602 -17.467213088655853 0 13.111992425538233 49.45054225750374 0
          1.6047826830209004 22.445391370448775 0 -25.442525168919026 -16.766088433362327 0
          24.860911549332883 18.296648546241826 0 18.127137052491975 -42.11576276898946 0
          -4.106371249565804 19.81468592825003 0 -43.2115168522386 -43.085994704941484 0
          2.7042817825837204 -23.795120132132308 0 -1.6624837545658195 -36.91945356486498 0
          -40.55592314206473 -37.96183180819797 0 46.98372058379586 25.62816454897687 0
          -23.182362140209666 22.4905983535036 0 -8.42374893276238 -2.5281598168396826 0
          -44.45585735866184 11.374414308737222 0 -0.9380815156004232 40.44748670579848 0
          43.5214270198436 41.82766196839604 0 -19.617472876146607 29.010177679462174 0
          -27.377259211045168 -5.104813753149479 0 1.0108912986547693 -26.93680745999526 0
          21.18807799653547 48.4452609761332 0 15.521324819791857 -22.733301715898534 0
          -3.0984436752635744 -49.699879474370995 0 -5.357606698271908 47.09441502974741 0
          -19.533649987483585 -28.48909553641595 0 -25.241492794096537 30.645102659141713 0
          -1.3628901407151872 -9.249808436218693 0 -28.437070584076316 4.0252086974848424 0
          22.302423751473526 -21.630608392707323 0 4.286209731170565 25.592468486596516 0
          -16.80227135673981 30.176297340482108 0 35.70724318896097 -48.51082997011254 0
          38.494266527440914 9.308694076898924 0 -41.37827709570729 42.48759424258512 0
          41.371957205314274 48.07567751376408 0 40.00221093710812 44.971458396046486 0
          43.45219546574209 -49.16757290067578 0 27.77940311086799 -47.40411222574361 0
          8.787704962513757 14.978077069606684 0 -17.176354508003442 -38.89206379839693 0
          -37.572734230027905 47.39150589914381 0 3.322947059262674 16.230028184641725 0
          20.82576325094061 -43.12614201683975 0 -29.404442159877867 -6.6570323329381935 0
          -48.88074135310182 -43.07374742736768 0 -15.693819004659524 -18.776991949103287 0
          49.2742614956165 -23.093566379026992 0 35.70662412955289 -14.438908494432013 0
          24.676827977366614 34.48562696853686 0 -28.28613766609157 46.49521791482232 0
          21.219265309149932 48.266786794162286 0 25.989900495501132 -30.673962513745963 0
          -14.741048879365302 -30.369965831724773 0 33.206792723445574 45.25947670903301 0
          26.73700517552618 36.1968809297727 0 -4.433626259916984 -16.731616061562868 0
          33.82599634129042 5.430878965379037 0 -37.91344272052366 -28.781627030961573 0
          -0.8760744559602713 -9.034520229977083 0 25.951148963832622 -14.29357740625877 0
          27.17860558051683 48.15404052238152 0 34.61617221348607 33.462162550860555 0
          -13.28055184508198 -44.93740558320786 0 47.55616001461492 34.25892934866374 0
          36.946038841117556 -42.45015674570037 0 -46.76239316488481 11.393180618063838 0
          23.568028568935404 11.552780427737098 0 16.263007945057282 45.12644264060411 0
          -23.411248530157515 41.93857265065735 0 -38.160345232049345 -18.69342940760771 0
          37.21153998486223 -26.635630373860984 0 30.80584946405935 5.653176675427417 0
          44.35923105765637 0.370346282237378 0 16.64168251311186 -34.7034267378138 0
          47.322877480901255 13.376690736606477 0 -32.1350217035443 -42.58571958176201 0
          -0.5025219679409361 28.59799073613067 0 -3.5320261053794297 38.30316610148137 0
          14.736889949280638 40.32409694969634 0 -49.402638529229115 19.356180838194604 0
          8.508964450503598 -39.46387075781778 0 49.03198966734128 -27.000797471280585 0
          -16.70921662991016 18.938285128010065 0 46.14207459237997 -27.3400906744995 0
          42.424140585792586 37.62461911345025 0 -6.825547086494495 -2.911259141055119 0
          6.210247997996007 33.76154121673389 0 -35.16911208657487 13.927818279591207 0
          49.5593687100304 13.93941034113417 0 -6.0481675260535965 -47.161165000275155 0
          -41.68490984500472 3.0367185203014984 0 28.200151364646487 23.664522522360798 0
          -30.983903256438072 -23.817273645282434 0 -4.775523168997552 -3.9973115200368454 0
          17.36371431475763 -32.304692769073746 0 -31.21691646176371 -40.35131875297581 0
          -17.61253928181918 -32.96735050248542 0 -47.52659271635095 33.064298464373394 0
          -25.51716157275273 -35.79649925661745 0 -34.4558032257712 -19.698927528483058 0
          -46.64276824331557 -9.071061809886274 0 28.312364537561464 -5.662808823633235 0
          -48.25117889494449 -21.421563451189467 0 45.139670111270334 -32.86849758057289 0
          <InformationKey name="L2_NORM_RANGE" location="vtkDataArray" length="2">
            <Value index="0">
              2.9839152875
            </Value>
            <Value index="1">
              65.61664054
            </Value>
          </InformationKey>
        </DataArray>
        <DataArray type="Float64" Name="force" NumberOfComponents="3" format="ascii" RangeMin="0.49999999999999994" RangeMax="0.5">
          -0.4132447085190335 -0.2814761284390188 0 -0.03187072953171465 -0.4989832227631669 0
          -0.1930439716755187 -0.4612309887678207 0 -0.026606896083184537 0.4992915712094674 0
          -0.2534148935673017 0.4310230756215648 0 0.44493323305427956 0.22811053926521266 0
          0.4849655351884518 -0.1216898914428743 0 0.4606052584309317 0.19453224901227717 0
          0.4969787060651303 0.05488320068863367 0 -0.2948379578441411 -0.40381998293088034 0
          -0.3853460193377973 0.31860390044774084 0 -0.4952620604001547 -0.06866943663809627 0
          0.09232537500311848 -0.49140210126792655 0 -0.2595601458092826 0.4273505946029138 0
          0.42751079060715597 0.2592962088316072 0 0.48904291760084445 0.10410103142838524 0
          -0.36706152852794655 -0.33950822416360915 0 -0.49053388772941753 0.09683235507341123 0
          0.4856414645250054 -0.11896372528635747 0 -0.4999569874462363 0.006558254621766293 0
          0.4348011118806771 0.24687647337753127 0 0.4264210149320655 -0.26108450360813673 0
          -0.35991562785996195 -0.3470745464913401 0 0.33263699961538734 0.3732996470489529 0
          -0.45786285039372987 -0.2009019916012008 0 -0.2944199567149367 0.40412484344318006 0
          0.48609312387586806 -0.11710454696808309 0 0.4994092099647303 -0.024298991798095748 0
          -0.4879478203535448 -0.10911885543857566 0 -0.056667345756599374 -0.4967784334337613 0
          0.24928622145525586 0.43342401847678114 0 -0.49484321390749364 -0.07162537015403488 0
          -0.49989879341629617 0.010059639204825003 0 0.07544449402124488 0.4942753567819039 0
          0.42392699715162185 -0.26511488280745155 0 0.0013956318090379597 0.4999980522080597 0
          0.2786793255495854 0.41513592173073655 0 -0.15942910814006575 -0.47390121278349057 0
          -0.4956717382002492 -0.0656469949772544 0 0.46566889688990176 -0.1820782207441133 0
          -0.09847407633806933 0.49020695251022717 0 0.23817395962067636 -0.4396284396608213 0
          0.2959153478704823 -0.4030311487896332 0 -0.49571901320792444 -0.06528904919020959 0
          0.04004844153702247 0.4983935416219352 0 -0.3493297472743067 0.35772716931939763 0
          0.3555045096187767 -0.35159144420863414 0 -0.28229292368581893 0.4126871760024927 0
          -0.1400040971604002 -0.4799988049759095 0 -0.49166609088548063 0.09090904835818205 0
          0.3247414167051836 -0.38018812747942343 0 0.38632067873546544 -0.3174213811030525 0
          0.4913647704334979 -0.09252384761149915 0 0.18187185750250212 0.4657495329558469 0
          -0.17591926904876934 0.46803035241033963 0 -0.49028846385146707 0.09806743707351923 0
          -0.4989624972934875 -0.03219357536289639 0 0.26817217810093663 0.4219996242801639 0
          -0.23918526119165318 -0.4390790484966012 0 0.3430987398288871 -0.36370765008153133 0
          -0.43692329883071385 -0.24310086577156964 0 -0.2914201226230674 -0.4062933818441501 0
          -0.3958543986294866 -0.30544933309091954 0 0.3959142360706739 -0.3053717696129992 0
          0.4030586345251791 -0.29587790916980966 0 -0.481457476651729 -0.13490255066584106 0
          0.4908926182040589 -0.09499703886313537 0 -0.499938493315512 -0.007842378556011593 0
          -0.3763606050087809 0.329169705467293 0 0.49774810578901535 -0.04740066648737303 0
          -0.22191680952865117 0.44805460565496297 0 -0.021505820398269954 0.49953728558436694 0
          -0.02836631832368444 0.49919470348227796 0 -0.02614706348995086 0.4993158630274553 0
          0.13286382978107789 -0.4820240686271846 0 -0.4786468234948108 -0.14455870211899197 0
          -0.47068705063038585 -0.1686822467507135 0 0.32919481286123975 -0.3763386442889613 0
          -0.24612734516280457 0.4352256081196391 0 0.272590029022878 -0.4191594876384245 0
          -0.34881514541730146 0.358228969134975 0 0.45156697137039764 -0.21467945958420545 0
          -0.2747419237443452 -0.4177521697576883 0 -0.4729166378191107 -0.16232638009229453 0
          -0.4752699092533491 -0.15530136302786693 0 0.07452241763802228 0.4944152194961075 0
          -0.4630927621598825 -0.18853406491965977 0 0.23246801512567217 -0.442672138205614 0
          0.4878312723557808 -0.10963872359590855 0 -0.06868067729991953 0.4952605017216943 0
          -0.20921582904437885 -0.4541241425835817 0 -0.39934871397558935 -0.300866423261292 0
          -0.48547897307381005 -0.1196251089997365 0 0.17173075428111392 -0.4695833770844531 0
          0.2138296933089095 0.4519699793785177 0 0.49382492232165914 0.07833866283009512 0
          -0.49180743530224724 0.09014125904060738 0 0.48179665962663665 -0.13368612034394153 0
          -0.45717418952727684 -0.20246422012315543 0 0.4468944603952247 -0.22424393251114055 0
          -0.2925463836192688 0.40548318514000997 0 0.248206984353549 -0.4340429620649517 0
          -0.4045370906199244 -0.2938532666362024 0 0.45368234299465227 -0.21017214766681785 0
          -0.3687007571046654 0.33772733337775096 0 -0.47870739125046263 0.14435800484273975 0
          0.46098086025009194 0.19364050837333907 0 0.29303234948918283 -0.4051321292527284 0
          0.20570332487590998 -0.455725950692953 0 -0.4778504601820138 -0.14716975811571348 0
          -0.1322118750751922 0.4822032974680926 0 -0.09643056672924985 -0.49061303060586936 0
          0.11150181446814614 -0.4874088072350674 0 0.44584575704178186 -0.22632180833459342 0
          0.005737521770425819 -0.4999670797601917 0 0.05450005806225627 -0.49702086844639704 0
          -0.22925242314865013 -0.4443459535997512 0 -0.4246837406955683 -0.26390096701001176 0
          -0.42847529783155686 0.2576992804572001 0 0.2009711401312377 -0.4578325030339703 0
          0.48156449990213107 0.1345200075602525 0 0.22308263516189397 -0.44747529304892947 0
          0.1127836606047676 -0.4871137915319054 0 -0.03251405942386804 0.498941715974703 0
          0.25036130898620274 -0.4328038989689385 0 -0.13469250009580988 -0.4815162826093633 0
          -0.4948502985751049 -0.07157640672826189 0 0.4211363641483682 -0.26952581099385087 0
          -0.4488900582416218 0.22022196895821583 0 -0.4890145533690622 0.10423419109513277 0
          0.23058178768716725 0.44365756973930937 0 0.3782526363925331 0.326993796672197 0
          0.428264178150309 0.25804998297469506 0 -0.46826668484865713 0.17528922345896913 0
          -0.4704738338263382 0.1692760221790055 0 -0.4674417365164803 -0.17747738718624811 0
          0.257753072593974 0.42844294085486523 0 0.3910580045650779 0.31156642480469476 0
          -0.4502235541231803 -0.21748276095518856 0 0.28665685509846356 0.40966797217387946 0
          0.09290467450278561 -0.4912929080045136 0 0.49989860585271906 -0.010068955581780118 0
          -0.4183205798546703 0.273875687986452 0 0.4537303139603011 0.21006856545777286 0
          0.49869822824702076 0.03605658252361671 0 -0.3585584065034574 -0.34847649723575536 0
          0.20690931849561026 0.45517967212923965 0 -0.4112530747457955 0.2843781083559864 0
          -0.3957739326913615 0.3055535864656372 0 0.3578242991675165 0.34923025488247095 0
          0.08588940667439074 -0.49256777180518124 0 0.10924126360569178 0.4879204303222317 0
          0.27825760771706065 0.4154187089522791 0 0.09189968792331273 -0.49148188914709534 0
          <InformationKey name="L2_NORM_RANGE" location="vtkDataArray" length="2">
            <Value index="0">
              0.5
            </Value>
            <Value index="1">
              0.5
            </Value>
          </InformationKey>
        </DataArray>
        <DataArray type="Float64" Name="radius" format="ascii" RangeMin="1" RangeMax="1">
          1 1 1 1 1 1
          1 1 1 1 1 1
          1 1 1 1 1 1
          1 1 1 1 1 1
          1 1 1 1 1 1
          1 1 1 1 1 1
          1 1 1 1 1 1
          1 1 1 1 1 1
          1 1 1 1 1 1
          1 1 1 1 1 1
          1 1 1 1 1 1
          1 1 1 1 1 1
          1 1 1 1 1 1
          1 1 1 1 1 1
          1 1 1 1 1 1
          1 1 1 1 1 1
          1 1 1 1 1 1
          1 1 1 1 1 1
          1 1 1 1 1 1
          1 1 1 1 1 1
          1 1 1 1 1 1
          1 1 1 1 1 1
          1 1 1 1 1 1
          1 1 1 1 1 1
          1 1 1 1 1 1
          1 1 1 1
        </DataArray>
      </PointData>
      <CellData>
      </CellData>
      <Points>
        <DataArray type="Float32" Name="Points" NumberOfComponents="3" format="ascii" RangeMin="1.794948107132888" RangeMax="67.99806520117286">
          -36.9566650390625 33.5899658203125 0 47.128841400146484 -27.61693572998047 0
          -19.068832397460938 4.744941234588623 0 -30.808883666992188 49.383811950683594 0
          49.55863571166992 46.55833435058594 0 22.802085876464844 48.27960968017578 0
          -39.07560348510742 29.794084548950195 0 -20.098756790161133 -49.55844497680664 0
          -38.28239822387695 13.652971267700195 0 37.69441223144531 0.242854043841362 0
          29.700103759765625 -13.6698637008667 0 -28.61993408203125 18.17989158630371 0
          -10.180527687072754 23.894182205200195 0 -2.6522271633148193 -7.912357330322266 0
          -32.792640686035156 -19.410091400146484 0 29.69829559326172 -18.76388168334961 0
          37.153934478759766 -35.41129684448242 0 49.166603088378906 32.01856994628906 0
          -37.482051849365234 26.24726676940918 0 -1.0192633867263794 15.909510612487793 0
          -37.55303955078125 -29.03362464904785 0 -45.13722229003906 -46.33600997924805 0
          -8.883467674255371 -4.075436115264893 0 -1.247917890548706 29.289710998535156 0
          42.06764221191406 30.881956100463867 0 20.970802307128906 -49.58256912231445 0
          20.7025089263916 14.314452171325684 0 -4.290927410125732 27.310304641723633 0
          7.357694625854492 37.69725799560547 0 30.99750518798828 -47.8479118347168 0
          32.09092330932617 32.210716247558594 0 43.94398880004883 -8.497828483581543 0
          -7.799058437347412 8.089884757995605 0 -34.21550750732422 25.9630184173584 0
          -26.36275863647461 30.726119995117188 0 48.982566833496094 -16.93536376953125 0
          -20.137792587280273 -48.49221420288086 0 -28.546005249023438 40.624385833740234 0
          35.0032958984375 45.37013244628906 0 27.82268714904785 48.877708435058594 0
          -43.20563888549805 29.250795364379883 0 9.230217933654785 23.38727378845215 0
          19.369464874267578 17.8043155670166 0 -10.605256080627441 6.107480525970459 0
          -29.299467086791992 2.501185178756714 0 -9.555670738220215 -14.964339256286621 0
          9.72097110748291 -14.154885292053223 0 46.6861572265625 -34.47806930541992 0
          -10.608292579650879 -11.488605499267578 0 22.61638641357422 -11.346875190734863 0
          42.774078369140625 -5.991397380828857 0 35.945003509521484 11.805295944213867 0
          -37.71165084838867 -2.433459520339966 0 -15.952479362487793 3.1170997619628906 0
          21.63810157775879 48.86519241333008 0 22.002849578857422 41.318668365478516 0
          0.4394678771495819 6.062441825866699 0 0.554118812084198 -3.7788119316101074 0
          4.636806964874268 -5.294936180114746 0 35.3044319152832 10.241527557373047 0
          0.17516447603702545 47.53276443481445 0 -46.7230110168457 47.699954986572266 0
          -13.560354232788086 17.77434539794922 0 -14.89257526397705 35.48143005371094 0
          -45.400447845458984 15.949731826782227 0 24.996231079101562 -36.613365173339844 0
          48.64875411987305 -40.32669448852539 0 -21.916854858398438 30.266765594482422 0
          -42.52599334716797 12.680028915405273 0 -49.393943786621094 18.021554946899414 0
          3.305886745452881 -6.115899562835693 0 -29.822736740112305 -36.02328109741211 0
          -11.83790397644043 26.320043563842773 0 -45.77274703979492 -24.581350326538086 0
          0.5769035220146179 32.693111419677734 0 48.33452224731445 32.410987854003906 0
          -19.549379348754883 -44.80929946899414 0 -25.09195899963379 4.090009689331055 0
          38.72275924682617 -15.59228229522705 0 -46.99747085571289 -33.57551574707031 0
          37.87238311767578 -29.06969451904297 0 -22.950654983520508 -0.7976850271224976 0
          -27.552499771118164 -0.8677462339401245 0 45.26472091674805 15.280426979064941 0
          25.71568489074707 -6.493934631347656 0 5.43729829788208 -44.533973693847656 0
          -17.733835220336914 -9.755800247192383 0 40.760589599609375 30.963638305664062 0
          -24.09566879272461 -36.70106506347656 0 -0.9621359705924988 -11.805449485778809 0
          21.53408432006836 -21.413536071777344 0 12.224562644958496 31.008819580078125 0
          -18.83712387084961 -11.898375511169434 0 -15.582669258117676 31.345531463623047 0
          16.99370574951172 -12.103769302368164 0 -4.2827467918396 -19.835670471191406 0
          40.787567138671875 -1.0230365991592407 0 25.708984375 -39.03712463378906 0
          -10.566268920898438 36.97208023071289 0 -14.125343322753906 41.79071807861328 0
          4.65803337097168 -35.87995910644531 0 -29.828907012939453 45.25368881225586 0
          48.93437957763672 -25.97964859008789 0 -48.34122085571289 -11.173571586608887 0
          28.06363296508789 -2.0883238315582275 0 4.027400016784668 -48.216758728027344 0
          40.143394470214844 -30.33736228942871 0 38.84283447265625 -5.8143486976623535 0
          -34.78232192993164 -25.92548370361328 0 29.844961166381836 -2.8288497924804688 0
          -41.2423210144043 14.266226768493652 0 13.497962951660156 8.200943946838379 0
          22.758169174194336 -14.69861888885498 0 17.9926815032959 21.08920669555664 0
          -33.560768127441406 -36.810813903808594 0 -5.079969882965088 -45.961570739746094 0
          29.757823944091797 -33.44392395019531 0 33.55756759643555 -17.393266677856445 0
          15.622550010681152 -8.170123100280762 0 27.807260513305664 -38.7851448059082 0