<?xml version="1.0"?>
<VTKFile type="PolyData" version="0.1" byte_order="LittleEndian" header_type="UInt32" compressor="vtkZLibDataCompressor">
  <PolyData>
    <Piece NumberOfPoints="154" NumberOfVerts="0" NumberOfLines="0" NumberOfStrips="0" NumberOfPolys="0">
      <PointData>
        <DataArray type="Int32" Name="id" format="ascii" RangeMin="0" RangeMax="153">
          0 1 2 3 4 5
          6 7 8 9 10 11
          12 13 14 15 16 17
          18 19 20 21 22 23
          24 25 26 27 28 29
          30 31 32 33 34 35
          36 37 38 39 40 41
          42 43 44 45 46 47
          48 49 50 51 52 53
          54 55 56 57 58 59
          60 61 62 63 64 65
          66 67 68 69 70 71
          72 73 74 75 76 77
          78 79 80 81 82 83
          84 85 86 87 88 89
          90 91 92 93 94 95
          96 97 98 99 100 101
          102 103 104 105 106 107
          108 109 110 111 112 113
          114 115 116 117 118 119
          120 121 122 123 124 125
          126 127 128 129 130 131
          132 133 134 135 136 137
          138 139 140 141 142 143
          144 145 146 147 148 149
          150 151 152 153
        </DataArray>
        <DataArray type="Float64" Name="director" NumberOfComponents="3" format="ascii" RangeMin="0.9999999999999999" RangeMax="1">
          -0.8282001266310529 -0.5604324671611272 0 -0.05517726709559586 -0.9984765741848235 0
          -0.37235065532692074 -0.9280921233787154 0 -0.07462275734317793 0.9972118351115279 0
          -0.5198341514542734 0.8542672035035733 0 0.8778417413170134 0.4789508087492009 0
          0.9778916184153489 -0.20911236843623002 0 0.9337228179426658 0.3579967866520695 0
          0.9895407349150784 0.14425371379526605 0 -0.6126741986341566 -0.7903355783007582 0
          -0.783006051432706 0.6220140861907892 0 -0.9867489131892858 -0.16225468350640374 0
          0.13511503885638307 -0.9908299179348785 0 -0.5438512052008418 0.8391816648387832 0
          0.8437427829310347 0.536747721235771 0 0.9780252939165618 0.20848626923474575 0
          -0.7186687275779041 -0.6953526155854713 0 -0.9801199834156108 0.1984056907182422 0
          0.9656951811852479 -0.2596782952724223 0 -0.9999996576385332 0.0008274797982296516 0
          0.854283112541642 0.5198080065044827 0 0.8770382647185639 -0.48042052643434185 0
          -0.7356109549507188 -0.6774042537189234 0 0.6143427413891523 0.7890392867927813 0
          -0.89136104380527 -0.4532940431843103 0 -0.562041469295922 0.8271090537478605 0
          0.9535745254575774 -0.3011571423664996 0 0.9996587913927034 -0.026120888026241223 0
          -0.9762322793770835 -0.21672687120480463 0 -0.10237575708189797 -0.9947457988661768 0
          0.51207151838155 0.8589428153622416 0 -0.9827818341518133 -0.18476976609066117 0
          -0.9999823151840586 0.005947211037979783 0 0.14136102922265809 0.9899581099304712 0
          0.8565334134305436 -0.5160915729567975 0 0.038439211056261205 0.9992609404221563 0
          0.5133279977533545 0.8581924998055693 0 -0.38466014322918796 -0.9230582723809481 0
          -0.9882105571459039 -0.15310092992984164 0 0.9031074159417394 -0.42941471245293195 0
          -0.22346655719061514 0.974711597251912 0 0.47165151957588325 -0.8817850328066134 0
          0.5853535828914473 -0.810778134261245 0 -0.9844132157381156 -0.17587103422719233 0
          0.07287415870552728 0.9973411437381703 0 -0.6665834872220651 0.7454303821034336 0
          0.7150733786684327 -0.6990493996276032 0 -0.5614941496153352 0.827480706692157 0
          -0.297457799994766 -0.9547349670051233 0 -0.9848891899748762 0.17318569072135306 0
          0.649408758128346 -0.7604395208471213 0 0.752625800641871 -0.6584484825771737 0
          0.9828391444450569 -0.18446467452200313 0 0.2926268111753244 0.9562267248834667 0
          -0.38070756198354266 0.9246954916341633 0 -0.9853167682688608 0.1707362473764958 0
          -0.991595078614016 -0.12938006055209358 0 0.49756194414115873 0.8674284476211686 0
          -0.43555678059740677 -0.9001612582618863 0 0.703259156102202 -0.7109335829445804 0
          -0.853411629068202 -0.5212375575216713 0 -0.5849444311000882 -0.8110733706175997 0
          -0.7861568571125533 -0.6180270188389116 0 0.806422447527776 -0.5913398651565032 0
          0.7941418430516122 -0.607732451918267 0 -0.978989491169624 -0.20391070638747938 0
          0.9827188415116214 -0.185104507071159 0 -0.9998278138124667 0.018556473991129575 0
          -0.740215362961727 0.672369850926883 0 0.9977996816175937 -0.06630079459424736 0
          -0.38262423273398016 0.9239040515793472 0 -0.06721590776409915 0.9977384535756092 0
          -0.01068888098330952 0.9999428722798741 0 -0.07908700918503853 0.9968677168903433 0
          0.18607171277304033 -0.9825361661057099 0 -0.965163259358822 -0.26164839533972956 0
          -0.9464441251113886 -0.32286764787159783 0 0.6301948325931137 -0.7764370373526351 0
          -0.48650245325311325 0.8736792105679878 0 0.5218544951806027 -0.8530345162183054 0
          -0.7461419819094891 0.6657868599125245 0 0.9068476120003106 -0.42145866773544244 0
          -0.5088126388241089 -0.8608772842704394 0 -0.9504403205450319 -0.3109070553754884 0
          -0.9444687264271068 -0.3286013158847039 0 0.1985963908359341 0.9800813606772353 0
          -0.9115947017814011 -0.41109013571731245 0 0.46014368387744964 -0.8878444628355181 0
          0.9719268955836543 -0.23528304155021518 0 -0.09633302226320538 0.995349159250982 0
          -0.3986562730119048 -0.9171004176142641 0 -0.8000194768511308 -0.5999740299870012 0
          -0.9746755712876656 -0.22362363635148821 0 0.3353376445471053 -0.9420980119656337 0
          0.3117607018116197 0.9501606521035937 0 0.9962248453119343 0.086810469318006 0
          -0.9857692711370583 0.16810396807307323 0 0.9789959905219119 -0.2038795000533911 0
          -0.9106055870372628 -0.4132764992792623 0 0.8767779420140184 -0.4808954568278459 0
          -0.6202325962247998 0.7844179540144682 0 0.5219962244436747 -0.8529477953934513 0
          -0.8034787506896353 -0.5953334336237323 0 0.9172710700816211 -0.3982634605274725 0
          -0.7619584435550045 0.6476259184863087 0 -0.9582540165805883 0.2859182395496477 0
          0.9079181072010774 0.4191476000365659 0 0.5644915553521199 -0.8254388432440919 0
          0.40525163190279573 -0.9142051820243204 0 -0.9388110129099002 -0.3444326959495674 0
          -0.2713532201327306 0.9624798335152783 0 -0.20072245581824566 -0.9796481489444526 0
          0.15167497538784358 -0.9884304233688364 0 0.896062701673778 -0.44392751060177593 0
          0.07690046038190654 -0.9970387751702794 0 0.15475481054679496 -0.9879529080946245 0
          -0.4217690075126253 -0.9067033165825605 0 -0.8181443211211085 -0.575012930130515 0
          -0.8646238136898806 0.5024198053424712 0 0.4367991168261214 -0.8995590761811701 0
          0.9903970661579079 0.1382521296248581 0 0.4532095273518413 -0.8914040185670696 0
          0.2956456223263292 -0.9552976844938322 0 -0.06810508100149522 0.9976781534852709 0
          0.5323361254822645 -0.8465330764397401 0 -0.2529947536454681 -0.9674676504296508 0
          -0.9953806522809622 -0.09600706778527414 0 0.8276173384251222 -0.5612927410345843 0
          -0.9348321832567831 0.3550898325034897 0 -0.9720783979504419 0.2346563194079851 0
          0.39706813065505553 0.917789136794558 0 0.7468965248245808 0.6649402839390649 0
          0.8727044513816327 0.48824885103672655 0 -0.9391260475846537 0.34357279686847547 0
          -0.9258019186906005 0.3780090043223876 0 -0.9329425623576642 -0.3600252426448957 0
          0.44786457643778566 0.8941014043005429 0 0.8185522091658192 0.5744321377410538 0
          -0.9222370319362534 -0.38662495641824507 0 0.5723254944380496 0.8200265412876843 0
          0.1731905571132346 -0.9848883342424193 0 0.9997995892413941 0.020019524288544126 0
          -0.8075822699457381 0.5897549298389025 0 0.859952006954112 0.5103749070395163 0
          0.996315677051 0.08576171443253369 0 -0.6886981918236438 -0.7250481367322059 0
          0.3918572109858713 0.9200260464782366 0 -0.8552008431191295 0.5182967469783407 0
          -0.7839738164856631 0.620793890969381 0 0.7573643229010198 0.6529925592199958 0
          0.18666939827006082 -0.9824227886961364 0 0.15781789903505156 0.9874682327772182 0
          0.5602858151979352 0.8282993452176485 0 0.21977182587531235 -0.97555130288029 0
          <InformationKey name="L2_NORM_RANGE" location="vtkDataArray" length="2">
            <Value index="0">
              1
            </Value>
            <Value index="1">
              1
            </Value>
          </InformationKey>
        </DataArray>
        <DataArray type="Float64" Name="velocity" NumberOfComponents="3" format="ascii" RangeMin="2.98391528750295" RangeMax="65.61664053985334">
          20.472372037415383 -30.489259884928693 0 -7.778161120144524 43.605506408926914 0
          -35.778279556590725 14.318100471258902 0 -2.7267860528004704 -6.306708942777526 0
          -25.56803597993237 0.5919415230237348 0 40.69440930810454 -42.34960265147567 0
          21.390392053252754 11.720491675449018 0 -31.091580543867785 -10.301819378431787 0
          -22.233594277397 35.80993014386058 0 40.8936574712134 11.727908496204755 0
          -31.918129728714472 1.502371966558826 0 32.46317064138093 -14.067556233339687 0
          31.61170207931397 -20.66117562390716 0 -32.788218903188394 -0.7210412736466054 0
          -30.467523066969363 36.43074923190564 0 -29.58028331655805 11.627227611362315 0
          37.80505508071815 -10.753091333426255 0 44.65772551607054 -33.330173144632525 0
          47.18774005931614 6.396489460552942 0 9.836891189866492 -36.87781496106794 0
          6.677739541459459 5.438027088135769 0 -18.951003944933063 -37.93510690561732 0
          23.77908201111339 -25.727634747998636 0 32.285914726045576 -31.45240287607238 0
          -18.732306147503376 38.172541468590836 0 17.42129460906331 23.929755673071398 0
          -43.74567596165927 -36.843843838172035 0 -41.00470913383489 -49.1685554695042 0
          -4.3489588147394045 13.430332075080756 0 2.9762992276979077 -0.21305715242312573 0
          -16.420210149222868 -24.717665071237764 0 -26.63245586108499 -32.68369682188443 0
          9.59810303037343 22.68931438280859 0 37.757309281314306 20.71597266757422 0
          -26.523439665569285 -2.200425364398683 0 -48.17882370239545 24.733119867345934 0
          15.472358145094617 -42.19330576503555 0 -2.7230899171649696 49.647506705142575 0
          3.209752212846098 39.943600631846664 0 27.290092728339346 -29.624030405099575 0
          40.710862227344634 -12.518743865476708 0 34.808888796398136 -17.330075407408792 0
          -17.326333983387784 15.921061981020685 0 8.676498234140595 -45.101679767889145 0
          26.99656655139428 -0.8247828969564566 0 -1.181598492863479 -7.087342925864128 0
          -10.527228461045638 27.645380145270124 0 47.47543864880045 24.850515939083976 0
          13.45020038299144 -42.781974126121774 0 13.33632968921519 2.89206325620421 0
          -20.383234879262602 -17.467213088655853 0 13.111992425538233 49.45054225750374 0
          1.6047826830209004 22.445391370448775 0 -25.442525168919026 -16.766088433362327 0
          24.860911549332883 18.296648546241826 0 18.127137052491975 -42.11576276898946 0
          -4.106371249565804 19.81468592825003 0 -43.2115168522386 -43.085994704941484 0
          2.7042817825837204 -23.795120132132308 0 -1.6624837545658195 -36.91945356486498 0
          -40.55592314206473 -37.96183180819797 0 46.98372058379586 25.62816454897687 0
          -23.182362140209666 22.4905983535036 0 -8.42374893276238 -2.5281598168396826 0
          -44.45585735866184 11.374414308737222 0 -0.9380815156004232 40.44748670579848 0
          43.5214270198436 41.82766196839604 0 -19.617472876146607 29.010177679462174 0
          -27.377259211045168 -5.104813753149479 0 1.0108912986547693 -26.93680745999526 0
          21.18807799653547 48.4452609761332 0 15.521324819791857 -22.733301715898534 0
          -3.0984436752635744 -49.699879474370995 0 -5.357606698271908 47.09441502974741 0
          -19.533649987483585 -28.48909553641595 0 -25.241492794096537 30.645102659141713 0
          -1.3628901407151872 -9.249808436218693 0 -28.437070584076316 4.0252086974848424 0
          22.302423751473526 -21.630608392707323 0 4.286209731170565 25.592468486596516 0
          -16.80227135673981 30.176297340482108 0 35.70724318896097 -48.51082997011254 0
          38.494266527440914 9.308694076898924 0 -41.37827709570729 42.48759424258512 0
          41.371957205314274 48.07567751376408 0 40.00221093710812 44.971458396046486 0
          43.45219546574209 -49.16757290067578 0 27.77940311086799 -47.40411222574361 0
          8.787704962513757 14.978077069606684 0 -17.176354508003442 -38.89206379839693 0
          -37.572734230027905 47.39150589914381 0 3.322947059262674 16.230028184641725 0
          20.82576325094061 -43.12614201683975 0 -29.404442159877867 -6.6570323329381935 0
          -48.88074135310182 -43.07374742736768 0 -15.693819004659524 -18.776991949103287 0
          49.2742614956165 -23.093566379026992 0 35.70662412955289 -14.438908494432013 0
          24.676827977366614 34.48562696853686 0 -28.28613766609157 46.49521791482232 0
          21.219265309149932 48.266786794162286 0 25.989900495501132 -30.673962513745963 0
          -14.741048879365302 -30.369965831724773 0 33.206792723445574 45.25947670903301 0
          26.73700517552618 36.1968809297727 0 -4.433626259916984 -16.731616061562868 0
          33.82599634129042 5.430878965379037 0 -37.91344272052366 -28.781627030961573 0
          -0.8760744559602713 -9.034520229977083 0 25.951148963832622 -14.29357740625877 0
          27.17860558051683 48.15404052238152 0 34.61617221348607 33.462162550860555 0
          -13.28055184508198 -44.93740558320786 0 47.55616001461492 34.25892934866374 0
          36.946038841117556 -42.45015674570037 0 -46.76239316488481 11.393180618063838 0
          23.568028568935404 11.552780427737098 0 16.263007945057282 45.12644264060411 0
          -23.411248530157515 41.93857265065735 0 -38.160345232049345 -18.69342940760771 0
          37.21153998486223 -26.635630373860984 0 30.80584946405935 5.653176675427417 0
          44.35923105765637 0.370346282237378 0 16.64168251311186 -34.7034267378138 0
          47.322877480901255 13.376690736606477 0 -32.1350217035443 -42.58571958176201 0
          -0.5025219679409361 28.59799073613067 0 -3.5320261053794297 38.30316610148137 0
          14.736889949280638 40.32409694969634 0 -49.402638529229115 19.356180838194604 0
          8.508964450503598 -39.46387075781778 0 49.03198966734128 -27.000797471280585 0
          -16.70921662991016 18.938285128010065 0 46.14207459237997 -27.3400906744995 0
          42.424140585792586 37.62461911345025 0 -6.825547086494495 -2.911259141055119 0
          6.210247997996007 33.76154121673389 0 -35.16911208657487 13.927818279591207 0
          49.5593687100304 13.93941034113417 0 -6.0481675260535965 -47.161165000275155 0
          -41.68490984500472 3.0367185203014984 0 28.200151364646487 23.664522522360798 0
          -30.983903256438072 -23.817273645282434 0 -4.775523168997552 -3.9973115200368454 0
          17.36371431475763 -32.304692769073746 0 -31.21691646176371 -40.35131875297581 0
          -17.61253928181918 -32.96735050248542 0 -47.52659271635095 33.064298464373394 0
          -25.51716157275273 -35.79649925661745 0 -34.4558032257712 -19.698927528483058 0
          -46.64276824331557 -9.071061809886274 0 28.312364537561464 -5.662808823633235 0
          -48.25117889494449 -21.421563451189467 0 45.139670111270334 -32.86849758057289 0
          <InformationKey name="L2_NORM_RANGE" location="vtkDataArray" length="2">
            <Value index="0">
              2.9839152875
            </Value>
            <Value index="1">
              65.61664054
            </Value>
          </InformationKey>
        </DataArray>
        <DataArray type="Float64" Name="force" NumberOfComponents="3" format="ascii" RangeMin="0.49999999999999994" RangeMax="0.5">
          -0.41410006331552646 -0.2802162335805636 0 -0.02758863354779793 -0.49923828709241175 0
          -0.18617532766346037 -0.4640460616893577 0 -0.037311378671588964 0.49860591755576394 0
          -0.2599170757271367 0.42713360175178666 0 0.4389208706585067 0.23947540437460044 0
          0.48894580920767444 -0.10455618421811501 0 0.4668614089713329 0.17899839332603476 0
          0.4947703674575392 0.07212685689763303 0 -0.3063370993170783 -0.3951677891503791 0
          -0.391503025716353 0.3110070430953946 0 -0.4933744565946429 -0.08112734175320187 0
          0.06755751942819153 -0.49541495896743926 0 -0.2719256026004209 0.4195908324193916 0
          0.42187139146551733 0.2683738606178855 0 0.4890126469582809 0.10424313461737288 0
          -0.35933436378895206 -0.3476763077927357 0 -0.4900599917078054 0.0992028453591211 0
          0.48284759059262394 -0.12983914763621116 0 -0.4999998288192666 0.0004137398991148258 0
          0.427141556270821 0.25990400325224133 0 0.43851913235928197 -0.24021026321717093 0
          -0.3678054774753594 -0.3387021268594617 0 0.3071713706945762 0.3945196433963907 0
          -0.445680521902635 -0.22664702159215516 0 -0.281020734647961 0.41355452687393024 0
          0.4767872627287887 -0.1505785711832498 0 0.4998293956963517 -0.013060444013120611 0
          -0.48811613968854173 -0.10836343560240232 0 -0.051187878540948986 -0.4973728994330884 0
          0.256035759190775 0.4294714076811208 0 -0.49139091707590665 -0.09238488304533059 0
          -0.4999911575920293 0.0029736055189898917 0 0.07068051461132904 0.4949790549652356 0
          0.4282667067152718 -0.25804578647839876 0 0.019219605528130602 0.49963047021107815 0
          0.25666399887667724 0.42909624990278467 0 -0.19233007161459398 -0.46152913619047403 0
          -0.49410527857295194 -0.07655046496492082 0 0.4515537079708697 -0.21470735622646597 0
          -0.11173327859530757 0.487355798625956 0 0.23582575978794162 -0.4408925164033067 0
          0.29267679144572367 -0.4053890671306225 0 -0.4922066078690578 -0.08793551711359616 0
          0.03643707935276364 0.49867057186908514 0 -0.33329174361103253 0.3727151910517168 0
          0.35753668933421634 -0.3495246998138016 0 -0.2807470748076676 0.4137403533460785 0
          -0.148728899997383 -0.47736748350256164 0 -0.4924445949874381 0.08659284536067653 0
          0.324704379064173 -0.38021976042356065 0 0.3763129003209355 -0.32922424128858685 0
          0.49141957222252847 -0.09223233726100157 0 0.1463134055876622 0.47811336244173336 0
          -0.19035378099177133 0.46234774581708166 0 -0.4926583841344304 0.0853681236882479 0
          -0.495797539307008 -0.06469003027604679 0 0.24878097207057936 0.4337142238105843 0
          -0.21777839029870338 -0.45008062913094316 0 0.351629578051101 -0.3554667914722902 0
          -0.426705814534101 -0.26061877876083567 0 -0.2924722155500441 -0.4055366853087998 0
          -0.39307842855627667 -0.3090135094194558 0 0.403211223763888 -0.2956699325782516 0
          0.3970709215258061 -0.3038662259591335 0 -0.489494745584812 -0.10195535319373969 0
          0.4913594207558107 -0.0925522535355795 0 -0.49991390690623333 0.009278236995564787 0
          -0.3701076814808635 0.3361849254634415 0 0.49889984080879685 -0.03315039729712368 0
          -0.19131211636699008 0.4619520257896736 0 -0.033607953882049575 0.4988692267878046 0
          -0.00534444049165476 0.49997143613993705 0 -0.03954350459251926 0.49843385844517163 0
          0.09303585638652016 -0.49126808305285496 0 -0.482581629679411 -0.13082419766986478 0
          -0.4732220625556943 -0.16143382393579891 0 0.31509741629655685 -0.38821851867631757 0
          -0.24325122662655663 0.4368396052839939 0 0.26092724759030134 -0.4265172581091527 0
          -0.37307099095474455 0.33289342995626225 0 0.4534238060001553 -0.21072933386772122 0
          -0.25440631941205444 -0.4304386421352197 0 -0.47522016027251596 -0.1554535276877442 0
          -0.4722343632135534 -0.16430065794235196 0 0.09929819541796706 0.49004068033861764 0
          -0.45579735089070056 -0.20554506785865623 0 0.23007184193872482 -0.44392223141775905 0
          0.48596344779182715 -0.11764152077510759 0 -0.04816651113160269 0.497674579625491 0
          -0.1993281365059524 -0.45855020880713204 0 -0.4000097384255654 -0.2999870149935006 0
          -0.4873377856438328 -0.11181181817574411 0 0.16766882227355265 -0.47104900598281685 0
          0.15588035090580984 0.47508032605179684 0 0.49811242265596717 0.043405234659003 0
          -0.49288463556852913 0.08405198403653662 0 0.48949799526095594 -0.10193975002669554 0
          -0.4553027935186314 -0.20663824963963115 0 0.4383889710070092 -0.24044772841392295 0
          -0.3101162981123999 0.3922089770072341 0 0.26099811222183733 -0.42647389769672567 0
          -0.40173937534481763 -0.2976667168118661 0 0.45863553504081056 -0.19913173026373626 0
          -0.38097922177750226 0.32381295924315434 0 -0.47912700829029414 0.14295911977482384 0
          0.4539590536005387 0.20957380001828296 0 0.28224577767605996 -0.41271942162204595 0
          0.20262581595139786 -0.4571025910121602 0 -0.4694055064549501 -0.1722163479747837 0
          -0.1356766100663653 0.48123991675763916 0 -0.10036122790912283 -0.4898240744722263 0
          0.07583748769392179 -0.4942152116844182 0 0.448031350836889 -0.22196375530088797 0
          0.03845023019095327 -0.4985193875851397 0 0.07737740527339748 -0.4939764540473123 0
          -0.21088450375631265 -0.45335165829128027 0 -0.40907216056055423 -0.2875064650652575 0
          -0.4323119068449403 0.2512099026712356 0 0.2183995584130607 -0.4497795380905851 0
          0.49519853307895395 0.06912606481242906 0 0.22660476367592064 -0.4457020092835348 0
          0.1478228111631646 -0.4776488422469161 0 -0.03405254050074761 0.49883907674263545 0
          0.26616806274113225 -0.42326653821987004 0 -0.12649737682273404 -0.4837338252148254 0
          -0.4976903261404811 -0.04800353389263707 0 0.4138086692125611 -0.28064637051729213 0
          -0.46741609162839154 0.17754491625174484 0 -0.48603919897522097 0.11732815970399255 0
          0.19853406532752776 0.458894568397279 0 0.3734482624122904 0.33247014196953245 0
          0.43635222569081633 0.24412442551836327 0 -0.46956302379232684 0.17178639843423774 0
          -0.46290095934530023 0.1890045021611938 0 -0.4664712811788321 -0.18001262132244786 0
          0.22393228821889283 0.44705070215027143 0 0.4092761045829096 0.2872160688705269 0
          -0.4611185159681267 -0.19331247820912253 0 0.2861627472190248 0.41001327064384213 0
          0.0865952785566173 -0.49244416712120964 0 0.49989979462069706 0.010009762144272063 0
          -0.40379113497286906 0.29487746491945127 0 0.429976003477056 0.25518745351975813 0
          0.4981578385255 0.042880857216266846 0 -0.3443490959118219 -0.36252406836610296 0
          0.19592860549293564 0.4600130232391183 0 -0.42760042155956474 0.25914837348917036 0
          -0.39198690824283156 0.3103969454846905 0 0.3786821614505099 0.3264962796099979 0
          0.09333469913503041 -0.4912113943480682 0 0.07890894951752578 0.4937341163886091 0
          0.2801429075989676 0.41414967260882424 0 0.10988591293765618 -0.487775651440145 0
          <InformationKey name="L2_NORM_RANGE" location="vtkDataArray" length="2">
            <Value index="0">
              0.5
            </Value>
            <Value index="1">
              0.5
            </Value>
          </InformationKey>
        </DataArray>
        <DataArray type="Float64" Name="radius" format="ascii" RangeMin="1" RangeMax="1">
          1 1 1 1 1 1
          1 1 1 1 1 1
          1 1 1 1 1 1
          1 1 1 1 1 1
          1 1 1 1 1 1
          1 1 1 1 1 1
          1 1 1 1 1 1
          1 1 1 1 1 1
          1 1 1 1 1 1
          1 1 1 1 1 1
          1 1 1 1 1 1
          1 1 1 1 1 1
          1 1 1 1 1 1
          1 1 1 1 1 1
          1 1 1 1 1 1
          1 1 1 1 1 1
          1 1 1 1 1 1
          1 1 1 1 1 1
          1 1 1 1 1 1
          1 1 1 1 1 1
          1 1 1 1 1 1
          1 1 1 1 1 1
          1 1 1 1 1 1
          1 1 1 1 1 1
          1 1 1 1 1 1
          1 1 1 1
        </DataArray>
      </PointData>
      <CellData>
      </CellData>
      <Points>
        <DataArray type="Float32" Name="Points" NumberOfComponents="3" format="ascii" RangeMin="1.8489081248512154" RangeMax="68.03586542337584">
          -36.9271354675293 33.64445495605469 0 47.116390228271484 -27.62338638305664 0
          -19.013139724731445 4.7615814208984375 0 -30.789634704589844 49.435543060302734 0
          49.58694076538086 46.583412170410156 0 22.82265281677246 48.24866485595703 0
          -39.12514877319336 29.81820297241211 0 -20.149330139160156 -49.56205368041992 0
          -38.33572006225586 13.626117706298828 0 37.67689895629883 0.3175751864910126 0
          29.7280216217041 -13.643725395202637 0 -28.618236541748047 18.158557891845703 0
          -10.182821273803711 23.96369743347168 0 -2.658019781112671 -7.88570499420166 0
          -32.72248077392578 -19.32600975036621 0 29.679555892944336 -18.801530838012695 0
          37.208900451660156 -35.432621002197266 0 49.1826171875 32.03488540649414 0
          -37.48250198364258 26.2800235748291 0 -0.9398934245109558 15.873536109924316 0
          -37.51305389404297 -29.008087158203125 0 -45.21457290649414 -46.358333587646484 0
          -8.958464622497559 -4.026474952697754 0 -1.136573314666748 29.350879669189453 0
          42.024417877197266 30.825698852539062 0 21.011672973632812 -49.535804748535156 0
          20.755630493164062 14.306357383728027 0 -4.255739688873291 27.340404510498047 0
          7.275745391845703 37.61600875854492 0 31.015901565551758 -47.88980484008789 0
          32.1660270690918 32.22955322265625 0 43.9320182800293 -8.518404960632324 0
          -7.853281497955322 8.017602920532227 0 -34.23314666748047 26.048458099365234 0
          -26.355039596557617 30.800642013549805 0 48.93932342529297 -16.895915985107422 0
          -20.153873443603516 -48.48127365112305 0 -28.570688247680664 40.6361083984375 0
          34.951026916503906 45.33155822753906 0 27.80596923828125 48.95111846923828 0
          -43.18539047241211 29.275388717651367 0 9.19454574584961 23.433399200439453 0
          19.360536575317383 17.810380935668945 0 -10.605545997619629 6.079596042633057 0
          -29.28031349182129 2.449139356613159 0 -9.615899085998535 -14.914231300354004 0
          9.761409759521484 -14.194141387939453 0 46.71599197387695 -34.52070999145508 0
          -10.665261268615723 -11.483053207397461 0 22.574569702148438 -11.319585800170898 0
          42.80409622192383 -6.01147985458374 0 35.866878509521484 11.731864929199219 0
          -37.68385314941406 -2.434798240661621 0 -15.913418769836426 3.1056456565856934 0
          21.658138275146484 48.824623107910156 0 21.938936233520508 41.31725311279297 0
          0.4323972761631012 6.047648906707764 0 0.5374612808227539 -3.75114107131958 0
          4.71090841293335 -5.347500801086426 0 35.334190368652344 10.306900024414062 0
          0.10188758373260498 47.53931427001953 0 -46.6876220703125 47.72046661376953 0
          -13.550331115722656 17.791664123535156 0 -14.841323852539062 35.44389724731445 0
          -45.44669723510742 15.9180269241333 0 24.992082595825195 -36.576141357421875 0
          48.62839126586914 -40.313232421875 0 -21.92159080505371 30.301841735839844 0
          -42.51395797729492 12.71357250213623 0 -49.36266326904297 17.982206344604492 0
          3.317378520965576 -6.128325462341309 0 -29.853897094726562 -35.99419403076172 0
          -11.87281322479248 26.402585983276367 0 -45.850830078125 -24.589996337890625 0
          0.6430554389953613 32.72183609008789 0 48.310054779052734 32.446346282958984 0
          -19.570777893066406 -44.787139892578125 0 -25.089258193969727 3.990217924118042 0
          38.67816162109375 -15.66623306274414 0 -47.0303840637207 -33.54131317138672 0
          37.89124298095703 -29.097755432128906 0 -22.940427780151367 -0.802588164806366 0
          -27.60491371154785 -0.8452432751655579 0 45.17106246948242 15.275272369384766 0
          25.711143493652344 -6.627539157867432 0 5.34124755859375 -44.51960754394531 0
          -17.71224021911621 -9.6830472946167 0 40.72356414794922 30.97532844543457 0
          -24.16708755493164 -36.78509521484375 0 -0.9860035181045532 -11.723867416381836 0
          21.570415496826172 -21.51127815246582 0 12.195086479187012 31.004085540771484 0
          -18.829235076904297 -11.840974807739258 0 -15.533814430236816 31.32651710510254 0
          17.022876739501953 -12.122260093688965 0 -4.2674031257629395 -19.842628479003906 0
          40.92365264892578 -1.0017067193984985 0 25.704744338989258 -39.05772399902344 0
          -10.570096969604492 36.9531364440918 0 -14.121490478515625 41.785247802734375 0
          4.704831123352051 -35.891563415527344 0 -29.822017669677734 45.230690002441406 0
          48.98674392700195 -26.000356674194336 0 -48.40535354614258 -11.230060577392578 0
          28.076337814331055 -2.0409157276153564 0 3.9401144981384277 -48.265445709228516 0
          40.14923095703125 -30.303058624267578 0 38.838905334472656 -5.788097381591797 0
          -34.76255798339844 -25.936010360717773 0 29.861547470092773 -2.8775646686553955 0
          -41.2078857421875 14.224079132080078 0 13.490593910217285 8.155823707580566 0
          22.6293888092041 -14.700812339782715 0 17.972068786621094 21.099855422973633 0
          -33.693241119384766 -36.84941101074219 0 -5.1098432540893555 -45.98070526123047 0
          29.76643943786621 -33.40523147583008 0 33.52622985839844 -17.3055419921875 0
          15.619647979736328 -8.138984680175781 0 27.79025650024414 -38.79347610473633 0