<?xml version="1.0"?>
<VTKFile type="PolyData" version="0.1" byte_order="LittleEndian" header_type="UInt32" compressor="vtkZLibDataCompressor">
  <PolyData>
    <Piece NumberOfPoints="154" NumberOfVerts="0" NumberOfLines="0" NumberOfStrips="0" NumberOfPolys="0">
      <PointData>
        <DataArray type="Int32" Name="id" format="ascii" RangeMin="0" RangeMax="153">
          0 1 2 3 4 5
          6 7 8 9 10 11
          12 13 14 15 16 17
          18 19 20 21 22 23
          24 25 26 27 28 29
          30 31 32 33 34 35
          36 37 38 39 40 41
          42 43 44 45 46 47
          48 49 50 51 52 53
          54 55 56 57 58 59
          60 61 62 63 64 65
          66 67 68 69 70 71
          72 73 74 75 76 77
          78 79 80 81 82 83
          84 85 86 87 88 89
          90 91 92 93 94 95
          96 97 98 99 100 101
          102 103 104 105 106 107
          108 109 110 111 112 113
          114 115 116 117 118 119
          120 121 122 123 124 125
          126 127 128 129 130 131
          132 133 134 135 136 137
          138 139 140 141 142 143
          144 145 146 147 148 149
          150 151 152 153
        </DataArray>
        <DataArray type="Float64" Name="director" NumberOfComponents="3" format="ascii" RangeMin="0.9999999999999999" RangeMax="1">
          -0.859345985376247 -0.511394639605977 0 -0.12857546585514013 -0.9916997275285164 0
          -0.30878388974632315 -0.9511322249998317 0 -0.1061226141406154 0.9943530513695636 0
          -0.4403911195001644 0.8978060268595839 0 0.8905402451426061 0.4549044644552821 0
          0.9801157276356937 -0.19842671302310802 0 0.9156152726252889 0.40205555901556433 0
          0.9913971774383336 0.13088787784705425 0 -0.5790934191267694 -0.8152611924555638 0
          -0.6606053428118964 0.7507333621522203 0 -0.9781529952520405 -0.20788630998567886 0
          -0.052495251408216814 -0.9986211737088234 0 -0.4780160680386632 0.8783510907927741 0
          0.8749575300801109 0.48419967013217985 0 0.9691521733820269 0.24646311048287495 0
          -0.7542712585366531 -0.6565629204771872 0 -0.9816975754890627 0.19044650240657132 0
          0.9866443013062173 -0.16288960279884782 0 -0.9933586863294507 -0.11505876886977397 0
          0.8347261386275329 0.5506653007880276 0 0.8663750434762109 -0.4993939167046328 0
          -0.6774777148151564 -0.7355432998327384 0 0.6917777148654907 0.7221105131595025 0
          -0.9194089866513934 -0.39330282895582885 0 -0.5723799791314685 0.8199885118033421 0
          0.9724020916718548 -0.23331132015442757 0 0.9880980165360385 0.15382558212971797 0
          -0.9948674924728446 -0.10118632526579126 0 -0.25569466370059213 -0.9667575905856861 0
          0.4987169580319355 0.8667649022493773 0 -0.9830326362459746 -0.18343073917773278 0
          -0.999451266190024 -0.03312350390821753 0 0.2423941873287803 0.9701778486180872 0
          0.8725130520250496 -0.48859080429939844 0 -0.023734033157261396 0.9997183081598986 0
          0.5848700236719424 0.8111270279123866 0 -0.45809794765322237 -0.8889017214270122 0
          -0.9805031227044544 -0.19650350217442372 0 0.9727508289351057 -0.23185302414690404 0
          -0.2365464433877748 0.9716201830553924 0 0.4635053325623849 -0.8860941296985513 0
          0.5931609808858319 -0.8050838780863505 0 -0.9925930488211357 -0.12148678706741066 0
          0.17545094224985516 0.984488175075576 0 -0.6770186063246076 0.735965900494232 0
          0.8182208604138567 -0.5749040124956584 0 -0.6083638548446374 0.7936582514650578 0
          -0.33105845953991136 -0.9436102460057653 0 -0.9785365688669044 0.20607324763342263 0
          0.5510996519649459 -0.8344394367502745 0 0.8026068404514243 -0.5965083902683866 0
          0.9813481679716827 -0.19223884419810208 0 0.29909445249472294 0.9542235107598649 0
          -0.3162157939410946 0.9486872886584932 0 -0.9972299909623487 0.07437973598524056 0
          -0.9991528276009349 -0.04115370089137092 0 0.6154753675910177 0.7881561215195259 0
          -0.31933281159828364 -0.9476426306560586 0 0.7145968265494268 -0.6995365433524459 0
          -0.8437539550987946 -0.5367301586972184 0 -0.531705872117505 -0.8469290794132431 0
          -0.7880606541553428 -0.6155976002002065 0 0.800712274909544 -0.5990491238698066 0
          0.8068878680369509 -0.5907046372044019 0 -0.9974687246930592 -0.07110656270135693 0
          0.9892460234706376 -0.14626108521247433 0 -0.993905800738556 -0.11023275038866544 0
          -0.613635789562576 0.7895892082392679 0 0.9993011195138655 0.037380108859327146 0
          -0.5153550255296676 0.8569767777841566 0 -0.09866404913368418 0.99512079940505 0
          -0.050536422102235884 0.9987222186579733 0 -0.035810306593306064 0.9993586052772515 0
          0.21401769460555273 -0.9768297837370257 0 -0.9991126611216374 -0.04211757811698226 0
          -0.913667525229196 -0.4064623639914973 0 0.6777181527830911 -0.7353217699675937 0
          -0.5360311930415226 0.8441981758369784 0 0.5212436853158515 -0.8534078863699055 0
          -0.7130500301823641 0.701113153818219 0 0.7987072286054882 -0.6017198376099466 0
          -0.4925161887637428 -0.8703032826581991 0 -0.9673792571180577 -0.2533325342266855 0
          -0.9392435603505936 -0.34325141564156836 0 0.24023711709866563 0.9707142357914208 0
          -0.9506162455937051 -0.3103687381379263 0 0.2883706446794811 -0.9575188621051496 0
          0.9802545181463863 -0.1977399293354685 0 -0.05914267461253815 0.99824953996467 0
          -0.39818863837013146 -0.9173035529599461 0 -0.8109093367628933 -0.5851718102837528 0
          -0.9897901352629699 -0.14253241082684265 0 0.336544319159183 -0.9416676277974527 0
          0.35867290748744257 0.9334633069566819 0 0.9989274961701305 0.046301807689050484 0
          -0.9774405243039671 0.21121084595348283 0 0.9848356947358571 -0.17348963765637918 0
          -0.9367161250949477 -0.3500898470208844 0 0.79985258560665 -0.6001965022376895 0
          -0.599111164171818 0.8006658560002974 0 0.6113143560384536 -0.7913878683056058 0
          -0.7600210540581173 -0.6498984515971618 0 0.9111407067126659 -0.4120953925623819 0
          -0.7996206251885027 0.6005055002022446 0 -0.9587359063484668 0.2842981918306618 0
          0.9147521007905153 0.4040155864559424 0 0.6407550173240977 -0.7677454055700987 0
          0.4673728383185374 -0.8840603090299181 0 -0.9800630623025717 -0.1986866727037966 0
          -0.233101595186336 0.9724523876887678 0 -0.09624484326190624 -0.9953576895495866 0
          0.18167086999499565 -0.9833593925901463 0 0.8942829087430446 -0.4475020437160922 0
          -0.014615802319146777 -0.9998931834563968 0 0.15797900358285483 -0.9874424714518656 0
          -0.46615858731356824 -0.8847011763718969 0 -0.8612937168603386 -0.5081074033084962 0
          -0.7581929618700936 0.6520302390001977 0 0.4659180531696293 -0.8848278746347351 0
          0.9928867341660423 0.11906272765685631 0 0.4678116540779082 -0.8838281825722076 0
          0.3682911386820585 -0.9297105125619871 0 -0.07396868476058878 0.9972605645841957 0
          0.5681300570852403 -0.8229387815848282 0 -0.37817457246266717 -0.9257342992147795 0
          -0.9998833574792758 -0.01527322611535109 0 0.7088876058274651 -0.705321460260642 0
          -0.8449268565988168 0.5348818626557106 0 -0.9541403073208412 0.29935977342604114 0
          0.5025850385871579 0.8645277780316518 0 0.6887711316991396 0.7249788466830508 0
          0.8595049382138639 0.5111274412374883 0 -0.9356594257284342 0.3529042916224409 0
          -0.8916799251291715 0.45266644576512965 0 -0.9764309106038427 -0.21583020367258732 0
          0.42719473705169914 0.9041596411228106 0 0.8553238191001225 0.5180937796190773 0
          -0.8932325853927899 -0.4495948714037031 0 0.434224630356248 0.9008046238735566 0
          0.14680067591124663 -0.9891660940165717 0 0.9966841796787892 0.08136735204010907 0
          -0.8006317972014356 0.5991566784322773 0 0.8066551419642628 0.5910224039261244 0
          0.9962128791424466 0.08694768214689251 0 -0.6860326268067369 -0.7275707765960975 0
          0.26639119768846814 0.9638649956265158 0 -0.8625563328671649 0.505961038648974 0
          -0.7152777469580861 0.6988402855492549 0 0.7565595619063439 0.6539247887089776 0
          0.12986422011204005 -0.991531786850372 0 0.1076536019219514 0.9941884640213997 0
          0.4987759375131232 0.8667309641162619 0 0.30395527572545766 -0.9526863021785613 0
          <InformationKey name="L2_NORM_RANGE" location="vtkDataArray" length="2">
            <Value index="0">
              1
            </Value>
            <Value index="1">
              1
            </Value>
          </InformationKey>
        </DataArray>
        <DataArray type="Float64" Name="velocity" NumberOfComponents="3" format="ascii" RangeMin="2.98391528750295" RangeMax="65.61664053985334">
          20.472372037415383 -30.489259884928693 0 -7.778161120144524 43.605506408926914 0
          -35.778279556590725 14.318100471258902 0 -2.7267860528004704 -6.306708942777526 0
          -25.56803597993237 0.5919415230237348 0 40.69440930810454 -42.34960265147567 0
          21.390392053252754 11.720491675449018 0 -31.091580543867785 -10.301819378431787 0
          -22.233594277397 35.80993014386058 0 40.8936574712134 11.727908496204755 0
          -31.918129728714472 1.502371966558826 0 32.46317064138093 -14.067556233339687 0
          31.61170207931397 -20.66117562390716 0 -32.788218903188394 -0.7210412736466054 0
          -30.467523066969363 36.43074923190564 0 -29.58028331655805 11.627227611362315 0
          37.80505508071815 -10.753091333426255 0 44.65772551607054 -33.330173144632525 0
          47.18774005931614 6.396489460552942 0 9.836891189866492 -36.87781496106794 0
          6.677739541459459 5.438027088135769 0 -18.951003944933063 -37.93510690561732 0
          23.77908201111339 -25.727634747998636 0 32.285914726045576 -31.45240287607238 0
          -18.732306147503376 38.172541468590836 0 17.42129460906331 23.929755673071398 0
          -43.74567596165927 -36.843843838172035 0 -41.00470913383489 -49.1685554695042 0
          -4.3489588147394045 13.430332075080756 0 2.9762992276979077 -0.21305715242312573 0
          -16.420210149222868 -24.717665071237764 0 -26.63245586108499 -32.68369682188443 0
          9.59810303037343 22.68931438280859 0 37.757309281314306 20.71597266757422 0
          -26.523439665569285 -2.200425364398683 0 -48.17882370239545 24.733119867345934 0
          15.472358145094617 -42.19330576503555 0 -2.7230899171649696 49.647506705142575 0
          3.209752212846098 39.943600631846664 0 27.290092728339346 -29.624030405099575 0
          40.710862227344634 -12.518743865476708 0 34.808888796398136 -17.330075407408792 0
          -17.326333983387784 15.921061981020685 0 8.676498234140595 -45.101679767889145 0
          26.99656655139428 -0.8247828969564566 0 -1.181598492863479 -7.087342925864128 0
          -10.527228461045638 27.645380145270124 0 47.47543864880045 24.850515939083976 0
          13.45020038299144 -42.781974126121774 0 13.33632968921519 2.89206325620421 0
          -20.383234879262602 -17.467213088655853 0 13.111992425538233 49.45054225750374 0
          1.6047826830209004 22.445391370448775 0 -25.442525168919026 -16.766088433362327 0
          24.860911549332883 18.296648546241826 0 18.127137052491975 -42.11576276898946 0
          -4.106371249565804 19.81468592825003 0 -43.2115168522386 -43.085994704941484 0
          2.7042817825837204 -23.795120132132308 0 -1.6624837545658195 -36.91945356486498 0
          -40.55592314206473 -37.96183180819797 0 46.98372058379586 25.62816454897687 0
          -23.182362140209666 22.4905983535036 0 -8.42374893276238 -2.5281598168396826 0
          -44.45585735866184 11.374414308737222 0 -0.9380815156004232 40.44748670579848 0
          43.5214270198436 41.82766196839604 0 -19.617472876146607 29.010177679462174 0
          -27.377259211045168 -5.104813753149479 0 1.0108912986547693 -26.93680745999526 0
          21.18807799653547 48.4452609761332 0 15.521324819791857 -22.733301715898534 0
          -3.0984436752635744 -49.699879474370995 0 -5.357606698271908 47.09441502974741 0
          -19.533649987483585 -28.48909553641595 0 -25.241492794096537 30.645102659141713 0
          -1.3628901407151872 -9.249808436218693 0 -28.437070584076316 4.0252086974848424 0
          22.302423751473526 -21.630608392707323 0 4.286209731170565 25.592468486596516 0
          -16.80227135673981 30.176297340482108 0 35.70724318896097 -48.51082997011254 0
          38.494266527440914 9.308694076898924 0 -41.37827709570729 42.48759424258512 0
          41.371957205314274 48.07567751376408 0 40.00221093710812 44.971458396046486 0
          43.45219546574209 -49.16757290067578 0 27.77940311086799 -47.40411222574361 0
          8.787704962513757 14.978077069606684 0 -17.176354508003442 -38.89206379839693 0
          -37.572734230027905 47.39150589914381 0 3.322947059262674 16.230028184641725 0
          20.82576325094061 -43.12614201683975 0 -29.404442159877867 -6.6570323329381935 0
          -48.88074135310182 -43.07374742736768 0 -15.693819004659524 -18.776991949103287 0
          49.2742614956165 -23.093566379026992 0 35.70662412955289 -14.438908494432013 0
          24.676827977366614 34.48562696853686 0 -28.28613766609157 46.49521791482232 0
          21.219265309149932 48.266786794162286 0 25.989900495501132 -30.673962513745963 0
          -14.741048879365302 -30.369965831724773 0 33.206792723445574 45.25947670903301 0
          26.73700517552618 36.1968809297727 0 -4.433626259916984 -16.731616061562868 0
          33.82599634129042 5.430878965379037 0 -37.91344272052366 -28.781627030961573 0
          -0.8760744559602713 -9.034520229977083 0 25.951148963832622 -14.29357740625877 0
          27.17860558051683 48.15404052238152 0 34.61617221348607 33.462162550860555 0
          -13.28055184508198 -44.93740558320786 0 47.55616001461492 34.25892934866374 0
          36.946038841117556 -42.45015674570037 0 -46.76239316488481 11.393180618063838 0
          23.568028568935404 11.552780427737098 0 16.263007945057282 45.12644264060411 0
          -23.411248530157515 41.93857265065735 0 -38.160345232049345 -18.69342940760771 0
          37.21153998486223 -26.635630373860984 0 30.80584946405935 5.653176675427417 0
          44.35923105765637 0.370346282237378 0 16.64168251311186 -34.7034267378138 0
          47.322877480901255 13.376690736606477 0 -32.1350217035443 -42.58571958176201 0
          -0.5025219679409361 28.59799073613067 0 -3.5320261053794297 38.30316610148137 0
          14.736889949280638 40.32409694969634 0 -49.402638529229115 19.356180838194604 0
          8.508964450503598 -39.46387075781778 0 49.03198966734128 -27.000797471280585 0
          -16.70921662991016 18.938285128010065 0 46.14207459237997 -27.3400906744995 0
          42.424140585792586 37.62461911345025 0 -6.825547086494495 -2.911259141055119 0
          6.210247997996007 33.76154121673389 0 -35.16911208657487 13.927818279591207 0
          49.5593687100304 13.93941034113417 0 -6.0481675260535965 -47.161165000275155 0
          -41.68490984500472 3.0367185203014984 0 28.200151364646487 23.664522522360798 0
          -30.983903256438072 -23.817273645282434 0 -4.775523168997552 -3.9973115200368454 0
          17.36371431475763 -32.304692769073746 0 -31.21691646176371 -40.35131875297581 0
          -17.61253928181918 -32.96735050248542 0 -47.52659271635095 33.064298464373394 0
          -25.51716157275273 -35.79649925661745 0 -34.4558032257712 -19.698927528483058 0
          -46.64276824331557 -9.071061809886274 0 28.312364537561464 -5.662808823633235 0
          -48.25117889494449 -21.421563451189467 0 45.139670111270334 -32.86849758057289 0
          <InformationKey name="L2_NORM_RANGE" location="vtkDataArray" length="2">
            <Value index="0">
              2.9839152875
            </Value>
            <Value index="1">
              65.61664054
            </Value>
          </InformationKey>
        </DataArray>
        <DataArray type="Float64" Name="force" NumberOfComponents="3" format="ascii" RangeMin="0.49999999999999994" RangeMax="0.5">
          -0.4296729926881235 -0.2556973198029885 0 -0.06428773292757006 -0.4958498637642582 0
          -0.15439194487316157 -0.47556611249991587 0 -0.0530613070703077 0.4971765256847818 0
          -0.2201955597500822 0.44890301342979194 0 0.44527012257130305 0.22745223222764105 0
          0.49005786381784683 -0.09921335651155401 0 0.45780763631264443 0.20102777950778217 0
          0.4956985887191668 0.06544393892352712 0 -0.2895467095633847 -0.4076305962277819 0
          -0.3303026714059482 0.37536668107611015 0 -0.48907649762602023 -0.10394315499283943 0
          -0.026247625704108407 -0.4993105868544117 0 -0.2390080340193316 0.43917554539638703 0
          0.43747876504005545 0.24209983506608992 0 0.48457608669101343 0.12323155524143747 0
          -0.37713562926832656 -0.3282814602385936 0 -0.49084878774453133 0.09522325120328566 0
          0.49332215065310864 -0.08144480139942391 0 -0.49667934316472534 -0.05752938443488698 0
          0.41736306931376643 0.2753326503940138 0 0.43318752173810543 -0.2496969583523164 0
          -0.3387388574075782 -0.3677716499163692 0 0.34588885743274533 0.36105525657975124 0
          -0.4597044933256967 -0.19665141447791443 0 -0.28618998956573427 0.40999425590167105 0
          0.4862010458359274 -0.11665566007721379 0 0.49404900826801923 0.07691279106485899 0
          -0.4974337462364223 -0.05059316263289563 0 -0.12784733185029606 -0.48337879529284306 0
          0.24935847901596775 0.43338245112468865 0 -0.4915163181229873 -0.09171536958886639 0
          -0.499725633095012 -0.016561751954108764 0 0.12119709366439015 0.4850889243090436 0
          0.4362565260125248 -0.24429540214969922 0 -0.011867016578630698 0.4998591540799493 0
          0.2924350118359712 0.4055635139561933 0 -0.22904897382661119 -0.4444508607135061 0
          -0.4902515613522272 -0.09825175108721186 0 0.48637541446755284 -0.11592651207345202 0
          -0.1182732216938874 0.4858100915276962 0 0.23175266628119245 -0.44304706484927564 0
          0.29658049044291596 -0.40254193904317526 0 -0.4962965244105679 -0.06074339353370533 0
          0.08772547112492758 0.492244087537788 0 -0.3385093031623038 0.367982950247116 0
          0.40911043020692833 -0.2874520062478292 0 -0.3041819274223187 0.3968291257325289 0
          -0.16552922976995568 -0.47180512300288263 0 -0.4892682844334522 0.10303662381671132 0
          0.27554982598247296 -0.41721971837513727 0 0.40130342022571214 -0.2982541951341933 0
          0.49067408398584134 -0.09611942209905104 0 0.14954722624736147 0.47711175537993245 0
          -0.1581078969705473 0.4743436443292466 0 -0.49861499548117433 0.03718986799262028 0
          -0.49957641380046747 -0.02057685044568546 0 0.30773768379550887 0.3940780607597629 0
          -0.15966640579914182 -0.4738213153280293 0 0.3572984132747134 -0.34976827167622293 0
          -0.4218769775493973 -0.2683650793486092 0 -0.2658529360587525 -0.42346453970662157 0
          -0.3940303270776714 -0.30779880010010324 0 0.400356137454772 -0.2995245619349033 0
          0.40344393401847545 -0.29535231860220096 0 -0.4987343623465296 -0.035553281350678465 0
          0.4946230117353188 -0.07313054260623716 0 -0.496952900369278 -0.05511637519433272 0
          -0.306817894781288 0.39479460411963396 0 0.49965055975693273 0.018690054429663573 0
          -0.2576775127648338 0.4284883888920783 0 -0.04933202456684209 0.497560399702525 0
          -0.025268211051117942 0.49936110932898664 0 -0.017905153296653032 0.49967930263862576 0
          0.10700884730277636 -0.48841489186851283 0 -0.4995563305608187 -0.02105878905849113 0
          -0.456833762614598 -0.20323118199574866 0 0.33885907639154556 -0.36766088498379684 0
          -0.2680155965207613 0.4220990879184892 0 0.26062184265792576 -0.42670394318495275 0
          -0.35652501509118206 0.3505565769091095 0 0.3993536143027441 -0.3008599188049733 0
          -0.2462580943818714 -0.43515164132909956 0 -0.48368962855902886 -0.12666626711334275 0
          -0.4696217801752968 -0.17162570782078418 0 0.12011855854933282 0.4853571178957104 0
          -0.47530812279685253 -0.15518436906896316 0 0.14418532233974055 -0.4787594310525748 0
          0.49012725907319316 -0.09886996466773425 0 -0.029571337306269076 0.499124769982335 0
          -0.19909431918506573 -0.4586517764799731 0 -0.40545466838144667 -0.2925859051418764 0
          -0.49489506763148494 -0.07126620541342132 0 0.1682721595795915 -0.47083381389872636 0
          0.17933645374372129 0.46673165347834095 0 0.4994637480850653 0.023150903844525242 0
          -0.48872026215198355 0.10560542297674141 0 0.49241784736792854 -0.08674481882818959 0
          -0.46835806254747386 -0.1750449235104422 0 0.399926292803325 -0.30009825111884475 0
          -0.299555582085909 0.4003329280001487 0 0.3056571780192268 -0.3956939341528029 0
          -0.38001052702905863 -0.3249492257985809 0 0.45557035335633295 -0.20604769628119096 0
          -0.39981031259425137 0.3002527501011223 0 -0.4793679531742334 0.1421490959153309 0
          0.45737605039525764 0.2020077932279712 0 0.32037750866204884 -0.38387270278504937 0
          0.2336864191592687 -0.44203015451495903 0 -0.49003153115128584 -0.0993433363518983 0
          -0.116550797593168 0.4862261938443839 0 -0.04812242163095312 -0.4976788447747933 0
          0.09083543499749783 -0.49167969629507313 0 0.4471414543715223 -0.2237510218580461 0
          -0.007307901159573389 -0.4999465917281984 0 0.07898950179142741 -0.4937212357259328 0
          -0.23307929365678412 -0.44235058818594847 0 -0.4306468584301693 -0.2540537016542481 0
          -0.3790964809350468 0.32601511950009887 0 0.23295902658481465 -0.44241393731736756 0
          0.49644336708302117 0.059531363828428156 0 0.2339058270389541 -0.4419140912861038 0
          0.18414556934102924 -0.46485525628099356 0 -0.03698434238029439 0.4986302822920978 0
          0.28406502854262017 -0.4114693907924141 0 -0.18908728623133358 -0.4628671496073897 0
          -0.4999416787396379 -0.007636613057675545 0 0.35444380291373256 -0.352660730130321 0
          -0.4224634282994084 0.2674409313278553 0 -0.4770701536604206 0.14967988671302057 0
          0.25129251929357893 0.4322638890158259 0 0.3443855658495698 0.3624894233415254 0
          0.42975246910693193 0.25556372061874416 0 -0.4678297128642171 0.17645214581122046 0
          -0.44583996256458575 0.22633322288256483 0 -0.48821545530192134 -0.10791510183629366 0
          0.21359736852584957 0.4520798205614053 0 0.4276619095500612 0.25904688980953866 0
          -0.44661629269639497 -0.22479743570185154 0 0.217112315178124 0.4504023119367783 0
          0.07340033795562331 -0.49458304700828587 0 0.4983420898393946 0.040683676020054536 0
          -0.4003158986007178 0.29957833921613863 0 0.4033275709821314 0.2955112019630622 0
          0.4981064395712233 0.043473841073446255 0 -0.34301631340336847 -0.36378538829804874 0
          0.13319559884423407 0.4819324978132579 0 -0.43127816643358247 0.252980519324487 0
          -0.35763887347904305 0.34942014277462746 0 0.37827978095317194 0.3269623943544888 0
          0.06493211005602002 -0.495765893425186 0 0.0538268009609757 0.49709423201069985 0
          0.2493879687565616 0.43336548205813097 0 0.15197763786272883 -0.47634315108928066 0
          <InformationKey name="L2_NORM_RANGE" location="vtkDataArray" length="2">
            <Value index="0">
              0.5
            </Value>
            <Value index="1">
              0.5
            </Value>
          </InformationKey>
        </DataArray>
        <DataArray type="Float64" Name="radius" format="ascii" RangeMin="1" RangeMax="1">
          1 1 1 1 1 1
          1 1 1 1 1 1
          1 1 1 1 1 1
          1 1 1 1 1 1
          1 1 1 1 1 1
          1 1 1 1 1 1
          1 1 1 1 1 1
          1 1 1 1 1 1
          1 1 1 1 1 1
          1 1 1 1 1 1
          1 1 1 1 1 1
          1 1 1 1 1 1
          1 1 1 1 1 1
          1 1 1 1 1 1
          1 1 1 1 1 1
          1 1 1 1 1 1
          1 1 1 1 1 1
          1 1 1 1 1 1
          1 1 1 1 1 1
          1 1 1 1 1 1
          1 1 1 1 1 1
          1 1 1 1 1 1
          1 1 1 1 1 1
          1 1 1 1 1 1
          1 1 1 1 1 1
          1 1 1 1
        </DataArray>
      </PointData>
      <CellData>
      </CellData>
      <Points>
        <DataArray type="Float32" Name="Points" NumberOfComponents="3" format="ascii" RangeMin="1.801747485244063" RangeMax="68.00008290284674">
          -36.920806884765625 33.67216110229492 0 47.13490295410156 -27.622299194335938 0
          -19.13347816467285 4.785304069519043 0 -30.890674591064453 49.446720123291016 0
          49.512332916259766 46.61051559448242 0 22.877099990844727 48.3643798828125 0
          -39.01307678222656 29.80107879638672 0 -20.1956729888916 -49.4564323425293 0
          -38.307132720947266 13.758063316345215 0 37.5883903503418 0.30838948488235474 0
          29.745866775512695 -13.690330505371094 0 -28.696439743041992 18.160871505737305 0
          -10.243976593017578 23.88199806213379 0 -2.626553535461426 -7.984813213348389 0
          -32.643836975097656 -19.371444702148438 0 29.68659210205078 -18.689189910888672 0
          37.19790267944336 -35.504180908203125 0 49.35255813598633 31.870168685913086 0
          -37.370384216308594 26.17681312561035 0 -0.938774049282074 15.764497756958008 0
          -37.45798873901367 -29.115034103393555 0 -45.137271881103516 -46.352088928222656 0
          -9.070416450500488 -4.014369010925293 0 -1.2029087543487549 29.37006187438965 0
          42.06232452392578 30.810937881469727 0 20.754016876220703 -49.68999481201172 0
          20.775854110717773 14.089570999145508 0 -4.440067768096924 27.324934005737305 0
          7.240115165710449 37.7025032043457 0 31.08616828918457 -47.83718490600586 0
          32.19868850708008 32.33452606201172 0 43.87483215332031 -8.51640796661377 0
          -7.875772476196289 8.058058738708496 0 -34.12248992919922 25.953947067260742 0
          -26.332202911376953 30.797672271728516 0 48.98295593261719 -16.954309463500977 0
          -20.15036964416504 -48.50626754760742 0 -28.694103240966797 40.63242721557617 0
          34.85546112060547 45.47775650024414 0 27.87372589111328 49.055137634277344 0
          -43.292137145996094 29.31252670288086 0 9.057693481445312 23.442506790161133 0
          19.410680770874023 17.97836685180664 0 -10.64583969116211 6.065517902374268 0
          -29.27989959716797 2.404543161392212 0 -9.536555290222168 -14.903764724731445 0
          9.711837768554688 -14.188225746154785 0 46.80570983886719 -34.549163818359375 0
          -10.58199405670166 -11.438135147094727 0 22.52501106262207 -11.353743553161621 0
          42.694149017333984 -6.026034832000732 0 35.65916442871094 11.67764949798584 0
          -37.67560577392578 -2.488584280014038 0 -15.904633522033691 3.051788568496704 0
          21.625843048095703 48.72471237182617 0 21.892454147338867 41.42336654663086 0
          0.4724466800689697 6.013434886932373 0 0.5415266156196594 -3.861306667327881 0
          4.712553024291992 -5.295469284057617 0 35.287330627441406 10.258356094360352 0
          0.10648828744888306 47.47005844116211 0 -46.7376594543457 47.686805725097656 0
          -13.623170852661133 17.74022102355957 0 -14.76355266571045 35.366329193115234 0
          -45.45477294921875 15.940686225891113 0 24.971126556396484 -36.532901763916016 0
          48.669410705566406 -40.22334289550781 0 -21.97379493713379 30.378835678100586 0
          -42.488407135009766 12.751211166381836 0 -49.509857177734375 18.016225814819336 0
          3.2000319957733154 -5.997210502624512 0 -29.994537353515625 -36.17939758300781 0
          -11.517515182495117 26.441679000854492 0 -45.709903717041016 -24.693151473999023 0
          0.5672791600227356 32.79582977294922 0 48.248634338378906 32.54236602783203 0
          -19.541629791259766 -44.698551177978516 0 -25.031518936157227 3.9608371257781982 0
          38.61371612548828 -15.66964054107666 0 -47.06354522705078 -33.713748931884766 0
          37.919315338134766 -29.180648803710938 0 -23.065975189208984 -0.9300487041473389 0
          -27.611825942993164 -0.7851346731185913 0 45.12226104736328 15.288460731506348 0
          25.65949821472168 -6.584754467010498 0 5.315597057342529 -44.433433532714844 0
          -17.692161560058594 -9.59109115600586 0 40.83741760253906 30.97574806213379 0
          -24.175979614257812 -36.79890441894531 0 -0.9099695682525635 -11.57153606414795 0
          21.649917602539062 -21.54956817626953 0 12.12363338470459 30.992490768432617 0
          -19.015308380126953 -11.928091049194336 0 -15.582427978515625 31.34848403930664 0
          16.986108779907227 -12.217541694641113 0 -4.233341693878174 -19.772518157958984 0
          40.89650344848633 -1.0388346910476685 0 25.57114601135254 -39.022830963134766 0
          -10.767637252807617 36.99479675292969 0 -13.987879753112793 41.79939651489258 0
          4.835436820983887 -35.91807174682617 0 -30.002307891845703 45.38236618041992 0
          49.037967681884766 -25.97832679748535 0 -48.611637115478516 -11.21548843383789 0
          27.973642349243164 -2.145599126815796 0 3.968562364578247 -48.29340744018555 0
          40.17228698730469 -30.23883628845215 0 38.842933654785156 -5.75129508972168 0
          -34.89692306518555 -25.99456214904785 0 29.896684646606445 -2.876936197280884 0
          -41.290016174316406 14.232010841369629 0 13.525012016296387 8.107248306274414 0
          22.669185638427734 -14.598466873168945 0 17.768354415893555 21.08145523071289 0
          -33.712589263916016 -36.843379974365234 0 -5.236292362213135 -46.00231170654297 0
          29.72344207763672 -33.276580810546875 0 33.539093017578125 -17.29741668701172 0