<?xml version="1.0"?>
<VTKFile type="PolyData" version="0.1" byte_order="LittleEndian" header_type="UInt32" compressor="vtkZLibDataCompressor">
  <PolyData>
    <Piece NumberOfPoints="154" NumberOfVerts="0" NumberOfLines="0" NumberOfStrips="0" NumberOfPolys="0">
      <PointData>
        <DataArray type="Int32" Name="id" format="ascii" RangeMin="0" RangeMax="153">
          0 1 2 3 4 5
          6 7 8 9 10 11
          12 13 14 15 16 17
          18 19 20 21 22 23
          24 25 26 27 28 29
          30 31 32 33 34 35
          36 37 38 39 40 41
          42 43 44 45 46 47
          48 49 50 51 52 53
          54 55 56 57 58 59
          60 61 62 63 64 65
          66 67 68 69 70 71
          72 73 74 75 76 77
          78 79 80 81 82 83
          84 85 86 87 88 89
          90 91 92 93 94 95
          96 97 98 99 100 101
          102 103 104 105 106 107
          108 109 110 111 112 113
          114 115 116 117 118 119
          120 121 122 123 124 125
          126 127 128 129 130 131
          132 133 134 135 136 137
          138 139 140 141 142 143
          144 145 146 147 148 149
          150 151 152 153
        </DataArray>
        <DataArray type="Float64" Name="director" NumberOfComponents="3" format="ascii" RangeMin="0.9999999999999999" RangeMax="1">
          -0.8407965533019964 -0.541351231600597 0 -0.08628852161627928 -0.9962701897764867 0
          -0.37034948594403394 -0.9288924901521111 0 -0.11370531370069381 0.9935145200933033 0
          -0.49532920919244233 0.8687053439002144 0 0.9205828583929209 0.39054730934051934 0
          0.9833069550345565 -0.1819544783199052 0 0.9440564451576775 0.32978391160917625 0
          0.9972622103596502 0.07394649274025553 0 -0.6190471727519574 -0.7853538042868374 0
          -0.638278768118072 0.7698053092631125 0 -0.9866873219308248 -0.16262880661487086 0
          -0.09057782897959361 -0.9958893798496615 0 -0.46932233839334103 0.8830269207023115 0
          0.8843670807375202 0.466792102019514 0 0.9685995929807744 0.24862588054641097 0
          -0.7483227979427745 -0.6633347496393488 0 -0.9837332529048285 0.17963542838005173 0
          0.9864878610377458 -0.16383436765579157 0 -0.9950761577691049 -0.09911326974464907 0
          0.8046748683615774 0.5937157200439264 0 0.843220104203594 -0.537568466213263 0
          -0.7169813294554785 -0.6970923706455655 0 0.6607815588687714 0.7505782647125857 0
          -0.9244813349421265 -0.38122730928361326 0 -0.5413414276210222 0.8408028655643567 0
          0.9632982364838303 -0.2684334323200869 0 0.9872458877140887 0.1592028806008888 0
          -0.9935064483120912 -0.11377581976102878 0 -0.27207334649921744 -0.9622765164570508 0
          0.4691598683191435 0.8831132531893991 0 -0.9836175296327109 -0.18026800991646624 0
          -0.9999614974608124 -0.008775169282112198 0 0.17391147179020705 0.9847612908617824 0
          0.8708149214928402 -0.49161099713637263 0 -0.04886258405961874 0.9988055105369698 0
          0.5753142108820113 0.8179324903420873 0 -0.44837940604827775 -0.8938433353959706 0
          -0.9810587128785108 -0.19371061376486287 0 0.9932675218541324 -0.11584312681273151 0
          -0.28957511800285823 0.9571552909709222 0 0.4436731634780337 -0.8961886654100206 0
          0.6233858784864589 -0.7819143472936572 0 -0.9855595150893272 -0.16932938970211384 0
          0.18093578422342071 0.9834949120292671 0 -0.671100374538106 0.7413664999814963 0
          0.8453267792740515 -0.5342496010687879 0 -0.5939721469123316 0.8044856050249474 0
          -0.2936535116973076 -0.955911928510069 0 -0.9661065999362165 0.25814344376660686 0
          0.5234677156899511 -0.8520455097178463 0 0.8016047708010575 -0.597854322915695 0
          0.9729180398598434 -0.23115035737649275 0 0.2528316874163223 0.9675102778979742 0
          -0.32232110326660945 0.9466303958721142 0 -0.9949059146771257 0.10080784166160786 0
          -0.9987826604020983 -0.04932744956012558 0 0.6451430649716515 0.7640617944374548 0
          -0.32792753361813365 -0.9447028806429711 0 0.7572140268045455 -0.653166837500531 0
          -0.7903841872404641 -0.6126114890860527 0 -0.39347288840152195 -0.9193362203747677 0
          -0.8118191660119641 -0.5839089327075233 0 0.8571874307606759 -0.5150045713835085 0
          0.8177881628065918 -0.5755193487393967 0 -0.9892325471611106 -0.1463522040733964 0
          0.9936402078078848 -0.11260167595335116 0 -0.9847540813896395 -0.1739522899718406 0
          -0.6252464358761965 0.7804273793403927 0 0.9932834264156837 0.11570667572754396 0
          -0.43863278621198815 0.8986663890787884 0 -0.07671904556062091 0.9970527508854621 0
          -0.06975569142632639 0.9975641049645056 0 0.06037123873989802 0.9981759932662226 0
          0.14037857629290038 -0.9900979018854541 0 -0.9992483868178692 0.03876417730180935 0
          -0.9015421527099657 -0.4326912835811241 0 0.6531050210947513 -0.757267344747431 0
          -0.48740403811643074 0.8731765592523639 0 0.5474749697850386 -0.8368220584203496 0
          -0.6853511927394007 0.7282127042359814 0 0.8202146668994054 -0.5720558540938966 0
          -0.5192713989899512 -0.8546093927584806 0 -0.9579759663800146 -0.2868484753982096 0
          -0.9004813026629698 -0.43489472697930137 0 0.23225917225825976 0.9726539348102736 0
          -0.9483678460314309 -0.3171725533738761 0 0.3488394505134133 -0.9371824997115022 0
          0.9952061858123283 -0.09779901697296035 0 -0.04307104769591733 0.9990720118441794 0
          -0.42222639617889424 -0.9064904138322608 0 -0.7991738027400318 -0.6011000191432676 0
          -0.9819101876269329 -0.18934725621049128 0 0.2619005165368223 -0.965094875873738 0
          0.3443971437051739 0.9388240556183666 0 0.988765236476081 0.1494767779168374 0
          -0.9568672486815091 0.29052550387303183 0 0.9894396077676242 -0.14494572287808294 0
          -0.9401236335283786 -0.3408336158324159 0 0.7855138990434479 -0.6188440146026782 0
          -0.5948649990567669 0.8038256234390595 0 0.6423807896913846 -0.7663856216262628 0
          -0.7273641011584239 -0.6862517499766381 0 0.90902003199008 -0.4167524222374167 0
          -0.7783955572510437 0.6277741285301882 0 -0.9525707817090824 0.30431711393569 0
          0.8853100322468341 0.46500123311998803 0 0.6208825997440531 -0.7839035637979113 0
          0.4496588811758237 -0.8932003641847144 0 -0.992697563999157 -0.12062979080699565 0
          -0.2298498000686419 0.9732261142244414 0 -0.05219004610405599 -0.9986371708922398 0
          0.21932884873991929 -0.9756509909339618 0 0.8851900167093297 -0.4652296576080855 0
          -0.01344196164855203 -0.9999096527522069 0 0.1536250801830697 -0.9881292095362556 0
          -0.4254898853141838 -0.9049631801876377 0 -0.8411393063877071 -0.5408185160010769 0
          -0.801229510686394 0.5983571435231986 0 0.4618326980158235 -0.8869670563461899 0
          0.9957306354203632 0.09230656360931115 0 0.4756221239874273 -0.8796497002635131 0
          0.420869512369002 -0.9071211901164467 0 -0.12129268359989669 0.9926167865320107 0
          0.5624124528975087 -0.8268568393777774 0 -0.40222037744834643 -0.9155428815546052 0
          -0.9996325261579536 -0.027107427894732836 0 0.7524482587882957 -0.6586513628972934 0
          -0.8198452618473523 0.5725851435607165 0 -0.960459627137282 0.27841929645646557 0
          0.48859333348373896 0.8725116357248469 0 0.6624014345197173 0.7491490769841612 0
          0.8343644522478071 0.5512131718538817 0 -0.9429999189330643 0.3327929579967612 0
          -0.887186894783681 0.46141024449408347 0 -0.9687823164184417 -0.24791293511012738 0
          0.4183513688758003 0.9082852702536489 0 0.8266345868852436 0.5627390689876283 0
          -0.8656359811448661 -0.5006738940142226 0 0.38006315101057847 0.9249605403712692 0
          0.11412841026707028 -0.993466006449094 0 0.9981778872021645 0.060339916312693906 0
          -0.8105700814953862 0.5856416506572624 0 0.7579435080987041 0.6523201963231168 0
          0.9916079064945827 0.1292817070487193 0 -0.6918511161722513 -0.722040187975164 0
          0.2982873664066282 0.9544761112999098 0 -0.8729241739550595 0.4878559075432796 0
          -0.7224296940830375 0.6914443846811462 0 0.7653435614730234 0.6436219642863259 0
          0.10578772128981895 -0.9943887358695831 0 0.19317480325856645 0.9811643569688078 0
          0.5018150708820652 0.8649749329521798 0 0.3277391460522699 -0.9447682531419697 0
          <InformationKey name="L2_NORM_RANGE" location="vtkDataArray" length="2">
            <Value index="0">
              1
            </Value>
            <Value index="1">
              1
            </Value>
          </InformationKey>
        </DataArray>
        <DataArray type="Float64" Name="velocity" NumberOfComponents="3" format="ascii" RangeMin="2.98391528750295" RangeMax="65.61664053985334">
          20.472372037415383 -30.489259884928693 0 -7.778161120144524 43.605506408926914 0
          -35.778279556590725 14.318100471258902 0 -2.7267860528004704 -6.306708942777526 0
          -25.56803597993237 0.5919415230237348 0 40.69440930810454 -42.34960265147567 0
          21.390392053252754 11.720491675449018 0 -31.091580543867785 -10.301819378431787 0
          -22.233594277397 35.80993014386058 0 40.8936574712134 11.727908496204755 0
          -31.918129728714472 1.502371966558826 0 32.46317064138093 -14.067556233339687 0
          31.61170207931397 -20.66117562390716 0 -32.788218903188394 -0.7210412736466054 0
          -30.467523066969363 36.43074923190564 0 -29.58028331655805 11.627227611362315 0
          37.80505508071815 -10.753091333426255 0 44.65772551607054 -33.330173144632525 0
          47.18774005931614 6.396489460552942 0 9.836891189866492 -36.87781496106794 0
          6.677739541459459 5.438027088135769 0 -18.951003944933063 -37.93510690561732 0
          23.77908201111339 -25.727634747998636 0 32.285914726045576 -31.45240287607238 0
          -18.732306147503376 38.172541468590836 0 17.42129460906331 23.929755673071398 0
          -43.74567596165927 -36.843843838172035 0 -41.00470913383489 -49.1685554695042 0
          -4.3489588147394045 13.430332075080756 0 2.9762992276979077 -0.21305715242312573 0
          -16.420210149222868 -24.717665071237764 0 -26.63245586108499 -32.68369682188443 0
          9.59810303037343 22.68931438280859 0 37.757309281314306 20.71597266757422 0
          -26.523439665569285 -2.200425364398683 0 -48.17882370239545 24.733119867345934 0
          15.472358145094617 -42.19330576503555 0 -2.7230899171649696 49.647506705142575 0
          3.209752212846098 39.943600631846664 0 27.290092728339346 -29.624030405099575 0
          40.710862227344634 -12.518743865476708 0 34.808888796398136 -17.330075407408792 0
          -17.326333983387784 15.921061981020685 0 8.676498234140595 -45.101679767889145 0
          26.99656655139428 -0.8247828969564566 0 -1.181598492863479 -7.087342925864128 0
          -10.527228461045638 27.645380145270124 0 47.47543864880045 24.850515939083976 0
          13.45020038299144 -42.781974126121774 0 13.33632968921519 2.89206325620421 0
          -20.383234879262602 -17.467213088655853 0 13.111992425538233 49.45054225750374 0
          1.6047826830209004 22.445391370448775 0 -25.442525168919026 -16.766088433362327 0
          24.860911549332883 18.296648546241826 0 18.127137052491975 -42.11576276898946 0
          -4.106371249565804 19.81468592825003 0 -43.2115168522386 -43.085994704941484 0
          2.7042817825837204 -23.795120132132308 0 -1.6624837545658195 -36.91945356486498 0
          -40.55592314206473 -37.96183180819797 0 46.98372058379586 25.62816454897687 0
          -23.182362140209666 22.4905983535036 0 -8.42374893276238 -2.5281598168396826 0
          -44.45585735866184 11.374414308737222 0 -0.9380815156004232 40.44748670579848 0
          43.5214270198436 41.82766196839604 0 -19.617472876146607 29.010177679462174 0
          -27.377259211045168 -5.104813753149479 0 1.0108912986547693 -26.93680745999526 0
          21.18807799653547 48.4452609761332 0 15.521324819791857 -22.733301715898534 0
          -3.0984436752635744 -49.699879474370995 0 -5.357606698271908 47.09441502974741 0
          -19.533649987483585 -28.48909553641595 0 -25.241492794096537 30.645102659141713 0
          -1.3628901407151872 -9.249808436218693 0 -28.437070584076316 4.0252086974848424 0
          22.302423751473526 -21.630608392707323 0 4.286209731170565 25.592468486596516 0
          -16.80227135673981 30.176297340482108 0 35.70724318896097 -48.51082997011254 0
          38.494266527440914 9.308694076898924 0 -41.37827709570729 42.48759424258512 0
          41.371957205314274 48.07567751376408 0 40.00221093710812 44.971458396046486 0
          43.45219546574209 -49.16757290067578 0 27.77940311086799 -47.40411222574361 0
          8.787704962513757 14.978077069606684 0 -17.176354508003442 -38.89206379839693 0
          -37.572734230027905 47.39150589914381 0 3.322947059262674 16.230028184641725 0
          20.82576325094061 -43.12614201683975 0 -29.404442159877867 -6.6570323329381935 0
          -48.88074135310182 -43.07374742736768 0 -15.693819004659524 -18.776991949103287 0
          49.2742614956165 -23.093566379026992 0 35.70662412955289 -14.438908494432013 0
          24.676827977366614 34.48562696853686 0 -28.28613766609157 46.49521791482232 0
          21.219265309149932 48.266786794162286 0 25.989900495501132 -30.673962513745963 0
          -14.741048879365302 -30.369965831724773 0 33.206792723445574 45.25947670903301 0
          26.73700517552618 36.1968809297727 0 -4.433626259916984 -16.731616061562868 0
          33.82599634129042 5.430878965379037 0 -37.91344272052366 -28.781627030961573 0
          -0.8760744559602713 -9.034520229977083 0 25.951148963832622 -14.29357740625877 0
          27.17860558051683 48.15404052238152 0 34.61617221348607 33.462162550860555 0
          -13.28055184508198 -44.93740558320786 0 47.55616001461492 34.25892934866374 0
          36.946038841117556 -42.45015674570037 0 -46.76239316488481 11.393180618063838 0
          23.568028568935404 11.552780427737098 0 16.263007945057282 45.12644264060411 0
          -23.411248530157515 41.93857265065735 0 -38.160345232049345 -18.69342940760771 0
          37.21153998486223 -26.635630373860984 0 30.80584946405935 5.653176675427417 0
          44.35923105765637 0.370346282237378 0 16.64168251311186 -34.7034267378138 0
          47.322877480901255 13.376690736606477 0 -32.1350217035443 -42.58571958176201 0
          -0.5025219679409361 28.59799073613067 0 -3.5320261053794297 38.30316610148137 0
          14.736889949280638 40.32409694969634 0 -49.402638529229115 19.356180838194604 0
          8.508964450503598 -39.46387075781778 0 49.03198966734128 -27.000797471280585 0
          -16.70921662991016 18.938285128010065 0 46.14207459237997 -27.3400906744995 0
          42.424140585792586 37.62461911345025 0 -6.825547086494495 -2.911259141055119 0
          6.210247997996007 33.76154121673389 0 -35.16911208657487 13.927818279591207 0
          49.5593687100304 13.93941034113417 0 -6.0481675260535965 -47.161165000275155 0
          -41.68490984500472 3.0367185203014984 0 28.200151364646487 23.664522522360798 0
          -30.983903256438072 -23.817273645282434 0 -4.775523168997552 -3.9973115200368454 0
          17.36371431475763 -32.304692769073746 0 -31.21691646176371 -40.35131875297581 0
          -17.61253928181918 -32.96735050248542 0 -47.52659271635095 33.064298464373394 0
          -25.51716157275273 -35.79649925661745 0 -34.4558032257712 -19.698927528483058 0
          -46.64276824331557 -9.071061809886274 0 28.312364537561464 -5.662808823633235 0
          -48.25117889494449 -21.421563451189467 0 45.139670111270334 -32.86849758057289 0
          <InformationKey name="L2_NORM_RANGE" location="vtkDataArray" length="2">
            <Value index="0">
              2.9839152875
            </Value>
            <Value index="1">
              65.61664054
            </Value>
          </InformationKey>
        </DataArray>
        <DataArray type="Float64" Name="force" NumberOfComponents="3" format="ascii" RangeMin="0.49999999999999994" RangeMax="0.5">
          -0.4203982766509982 -0.2706756158002985 0 -0.04314426080813964 -0.49813509488824337 0
          -0.18517474297201697 -0.46444624507605553 0 -0.056852656850346905 0.49675726004665166 0
          -0.24766460459622117 0.4343526719501072 0 0.46029142919646043 0.19527365467025967 0
          0.4916534775172782 -0.0909772391599526 0 0.47202822257883875 0.16489195580458813 0
          0.4986311051798251 0.03697324637012776 0 -0.3095235863759787 -0.3926769021434187 0
          -0.319139384059036 0.38490265463155626 0 -0.4933436609654124 -0.08131440330743543 0
          -0.04528891448979681 -0.49794468992483076 0 -0.23466116919667052 0.44151346035115574 0
          0.4421835403687601 0.233396051009757 0 0.4842997964903872 0.12431294027320548 0
          -0.3741613989713872 -0.3316673748196744 0 -0.49186662645241425 0.08981771419002586 0
          0.4932439305188729 -0.08191718382789578 0 -0.4975380788845524 -0.049556634872324534 0
          0.4023374341807887 0.2968578600219632 0 0.421610052101797 -0.2687842331066315 0
          -0.35849066472773927 -0.34854618532278275 0 0.3303907794343857 0.37528913235629285 0
          -0.46224066747106324 -0.19061365464180663 0 -0.2706707138105111 0.42040143278217834 0
          0.48164911824191514 -0.13421671616004344 0 0.49362294385704436 0.0796014403004444 0
          -0.4967532241560456 -0.05688790988051439 0 -0.13603667324960872 -0.4811382582285254 0
          0.23457993415957176 0.4415566265946996 0 -0.49180876481635544 -0.09013400495823312 0
          -0.4999807487304062 -0.004387584641056099 0 0.08695573589510353 0.4923806454308912 0
          0.4354074607464201 -0.24580549856818631 0 -0.02443129202980937 0.4994027552684849 0
          0.28765710544100564 0.40896624517104363 0 -0.22418970302413888 -0.4469216676979853 0
          -0.4905293564392554 -0.09685530688243144 0 0.4966337609270662 -0.057921563406365756 0
          -0.14478755900142912 0.4785776454854611 0 0.22183658173901685 -0.4480943327050103 0
          0.31169293924322944 -0.3909571736468286 0 -0.4927797575446636 -0.08466469485105692 0
          0.09046789211171036 0.49174745601463354 0 -0.335550187269053 0.37068324999074814 0
          0.42266338963702577 -0.26712480053439397 0 -0.2969860734561658 0.4022428025124737 0
          -0.1468267558486538 -0.4779559642550345 0 -0.48305329996810825 0.12907172188330343 0
          0.26173385784497555 -0.42602275485892316 0 0.40080238540052876 -0.2989271614578475 0
          0.4864590199299217 -0.11557517868824638 0 0.12641584370816114 0.4837551389489871 0
          -0.16116055163330473 0.4733151979360571 0 -0.4974529573385629 0.05040392083080393 0
          -0.49939133020104914 -0.02466372478006279 0 0.32257153248582576 0.3820308972187274 0
          -0.16396376680906682 -0.47235144032148557 0 0.37860701340227276 -0.3265834187502655 0
          -0.39519209362023205 -0.30630574454302634 0 -0.19673644420076097 -0.45966811018738385 0
          -0.40590958300598207 -0.29195446635376165 0 0.42859371538033797 -0.25750228569175426 0
          0.4088940814032959 -0.28775967436969835 0 -0.4946162735805553 -0.0731761020366982 0
          0.4968201039039424 -0.05630083797667558 0 -0.49237704069481975 -0.0869761449859203 0
          -0.3126232179380983 0.3902136896701964 0 0.49664171320784184 0.05785333786377198 0
          -0.21931639310599407 0.4493331945393942 0 -0.038359522780310455 0.49852637544273104 0
          -0.03487784571316319 0.4987820524822528 0 0.03018561936994901 0.4990879966331113 0
          0.07018928814645019 -0.49504895094272705 0 -0.4996241934089346 0.019382088650904676 0
          -0.45077107635498287 -0.21634564179056204 0 0.32655251054737566 -0.3786336723737155 0
          -0.24370201905821537 0.43658827962618196 0 0.2737374848925193 -0.4184110292101748 0
          -0.34267559636970035 0.3641063521179907 0 0.4101073334497027 -0.2860279270469483 0
          -0.2596356994949756 -0.4273046963792403 0 -0.4789879831900073 -0.1434242376991048 0
          -0.4502406513314849 -0.21744736348965069 0 0.11612958612912988 0.4863269674051368 0
          -0.47418392301571544 -0.15858627668693806 0 0.17441972525670665 -0.4685912498557511 0
          0.49760309290616417 -0.04889950848648018 0 -0.021535523847958666 0.4995360059220897 0
          -0.21111319808944712 -0.4532452069161304 0 -0.3995869013700159 -0.3005500095716338 0
          -0.49095509381346647 -0.09467362810524564 0 0.13095025826841114 -0.482547437936869 0
          0.17219857185258694 0.4694120278091833 0 0.4943826182380405 0.0747383889584187 0
          -0.47843362434075454 0.14526275193651592 0 0.4947198038838121 -0.07247286143904147 0
          -0.4700618167641893 -0.17041680791620795 0 0.39275694952172396 -0.3094220073013391 0
          -0.29743249952838346 0.40191281171952975 0 0.3211903948456923 -0.3831928108131314 0
          -0.36368205057921194 -0.34312587498831904 0 0.45451001599504 -0.20837621111870835 0
          -0.38919777862552185 0.3138870642650941 0 -0.4762853908545412 0.152158556967845 0
          0.44265501612341707 0.23250061655999402 0 0.31044129987202657 -0.39195178189895563 0
          0.22482944058791185 -0.4466001820923572 0 -0.4963487819995785 -0.060314895403497826 0
          -0.11492490003432095 0.4866130571122207 0 -0.026095023052027995 -0.4993185854461199 0
          0.10966442436995964 -0.4878254954669809 0 0.44259500835466487 -0.23261482880404274 0
          -0.006720980824276015 -0.49995482637610345 0 0.07681254009153485 -0.4940646047681278 0
          -0.2127449426570919 -0.45248159009381883 0 -0.42056965319385353 -0.27040925800053844 0
          -0.400614755343197 0.2991785717615993 0 0.23091634900791175 -0.44348352817309494 0
          0.4978653177101816 0.046153281804655576 0 0.23781106199371366 -0.43982485013175654 0
          0.210434756184501 -0.4535605950582233 0 -0.06064634179994834 0.49630839326600534 0
          0.28120622644875437 -0.4134284196888887 0 -0.20111018872417322 -0.4577714407773026 0
          -0.4998162630789768 -0.013553713947366418 0 0.37622412939414784 -0.3293256814486467 0
          -0.40992263092367615 0.2862925717803583 0 -0.480229813568641 0.13920964822823279 0
          0.24429666674186948 0.43625581786242346 0 0.33120071725985867 0.3745745384920806 0
          0.41718222612390354 0.2756065859269409 0 -0.47149995946653217 0.1663964789983806 0
          -0.4435934473918405 0.23070512224704173 0 -0.48439115820922085 -0.12395646755506369 0
          0.20917568443790016 0.45414263512682446 0 0.4133172934426218 0.28136953449381413 0
          -0.43281799057243303 -0.2503369470071113 0 0.19003157550528924 0.4624802701856346 0
          0.05706420513353514 -0.496733003224547 0 0.49908894360108225 0.030169958156346953 0
          -0.4052850407476931 0.2928208253286312 0 0.37897175404935207 0.3261600981615584 0
          0.4958039532472914 0.06464085352435965 0 -0.34592555808612563 -0.361020093987582 0
          0.1491436832033141 0.4772380556499549 0 -0.43646208697752975 0.2439279537716398 0
          -0.36121484704151874 0.3457221923405731 0 0.3826717807365117 0.32181098214316295 0
          0.052893860644909474 -0.49719436793479155 0 0.09658740162928323 0.4905821784844039 0
          0.2509075354410326 0.4324874664760899 0 0.16386957302613495 -0.47238412657098483 0
          <InformationKey name="L2_NORM_RANGE" location="vtkDataArray" length="2">
            <Value index="0">
              0.5
            </Value>
            <Value index="1">
              0.5
            </Value>
          </InformationKey>
        </DataArray>
        <DataArray type="Float64" Name="radius" format="ascii" RangeMin="1" RangeMax="1">
          1 1 1 1 1 1
          1 1 1 1 1 1
          1 1 1 1 1 1
          1 1 1 1 1 1
          1 1 1 1 1 1
          1 1 1 1 1 1
          1 1 1 1 1 1
          1 1 1 1 1 1
          1 1 1 1 1 1
          1 1 1 1 1 1
          1 1 1 1 1 1
          1 1 1 1 1 1
          1 1 1 1 1 1
          1 1 1 1 1 1
          1 1 1 1 1 1
          1 1 1 1 1 1
          1 1 1 1 1 1
          1 1 1 1 1 1
          1 1 1 1 1 1
          1 1 1 1 1 1
          1 1 1 1 1 1
          1 1 1 1 1 1
          1 1 1 1 1 1
          1 1 1 1 1 1
          1 1 1 1 1 1
          1 1 1 1
        </DataArray>
      </PointData>
      <CellData>
      </CellData>
      <Points>
        <DataArray type="Float32" Name="Points" NumberOfComponents="3" format="ascii" RangeMin="1.7991597734874518" RangeMax="67.92626655422998">
          -36.8588752746582 33.71127700805664 0 47.13809585571289 -27.65711212158203 0
          -19.093412399291992 4.783555030822754 0 -30.895957946777344 49.40380859375 0
          49.46175003051758 46.556556701660156 0 22.87198257446289 48.39331817626953 0
          -39.02565383911133 29.73786735534668 0 -20.21530532836914 -49.44536209106445 0
          -38.33129119873047 13.82819938659668 0 37.670135498046875 0.24772244691848755 0
          29.719139099121094 -13.65479564666748 0 -28.697021484375 18.241867065429688 0
          -10.23537540435791 23.810386657714844 0 -2.6124227046966553 -7.922837257385254 0
          -32.644039154052734 -19.4268798828125 0 29.678558349609375 -18.73572540283203 0
          37.28925323486328 -35.46750259399414 0 49.35681915283203 31.91914939880371 0
          -37.41133499145508 26.144847869873047 0 -0.9308912754058838 15.743692398071289 0
          -37.435272216796875 -29.050010681152344 0 -45.123634338378906 -46.32807922363281 0
          -9.085269927978516 -4.0308122634887695 0 -1.1463658809661865 29.375457763671875 0
          42.07194900512695 30.86549949645996 0 20.73778533935547 -49.68060302734375 0
          20.80522346496582 14.022577285766602 0 -4.498898029327393 27.32149887084961 0
          7.232959747314453 37.70711135864258 0 31.077598571777344 -47.86780548095703 0
          32.19354248046875 32.343727111816406 0 43.88826370239258 -8.547365188598633 0
          -7.981321811676025 7.970804691314697 0 -34.137794494628906 25.985885620117188 0
          -26.343252182006836 30.815147399902344 0 48.98048400878906 -16.98052406311035 0
          -20.195499420166016 -48.56949996948242 0 -28.661273956298828 40.574825286865234 0
          34.8314094543457 45.47523498535156 0 27.889972686767578 49.04195022583008 0
          -43.280540466308594 29.435304641723633 0 9.033863067626953 23.449901580810547 0
          19.3856258392334 18.026744842529297 0 -10.65937614440918 6.050673484802246 0
          -29.28824234008789 2.407839059829712 0 -9.545117378234863 -14.8932466506958 0
          9.729208946228027 -14.235102653503418 0 46.784149169921875 -34.543636322021484 0
          -10.592086791992188 -11.422672271728516 0 22.5443172454834 -11.321622848510742 0
          42.607215881347656 -6.1022748947143555 0 35.603477478027344 11.725898742675781 0
          -37.625736236572266 -2.495784044265747 0 -15.902463912963867 3.047391414642334 0
          21.608415603637695 48.746402740478516 0 21.878589630126953 41.42563247680664 0
          0.6043323278427124 6.006779193878174 0 0.5190667510032654 -3.84074068069458 0
          4.647873401641846 -5.288593292236328 0 35.22010803222656 10.268245697021484 0
          0.11657723039388657 47.40586853027344 0 -46.70673370361328 47.68716049194336 0
          -13.732867240905762 17.800128936767578 0 -14.785791397094727 35.336334228515625 0
          -45.43903732299805 15.81624698638916 0 24.957374572753906 -36.54447555541992 0
          48.6008415222168 -40.19977569580078 0 -21.9945011138916 30.384336471557617 0
          -42.513343811035156 12.7927885055542 0 -49.528621673583984 18.057880401611328 0
          3.2243165969848633 -6.049594402313232 0 -29.96146583557129 -36.11769485473633 0
          -11.412553787231445 26.458648681640625 0 -45.6619873046875 -24.715116500854492 0
          0.5918347835540771 32.74591064453125 0 48.253719329833984 32.538734436035156 0
          -19.518342971801758 -44.67509841918945 0 -25.079317092895508 3.9235734939575195 0
          38.59090805053711 -15.66851806640625 0 -47.062400817871094 -33.702362060546875 0
          37.936378479003906 -29.167940139770508 0 -23.111143112182617 -0.9140933752059937 0
          -27.641284942626953 -0.7718232274055481 0 45.05290985107422 15.26230239868164 0
          25.685970306396484 -6.572204113006592 0 5.264562129974365 -44.42620086669922 0
          -17.62375831604004 -9.534996032714844 0 40.844207763671875 30.980440139770508 0
          -24.242704391479492 -36.71062088012695 0 -0.8821792602539062 -11.539121627807617 0
          21.631553649902344 -21.573965072631836 0 12.117745399475098 30.976045608520508 0
          -18.994478225708008 -11.908130645751953 0 -15.620732307434082 31.394304275512695 0
          16.998552322387695 -12.24137020111084 0 -4.237313270568848 -19.72808074951172 0
          40.86910629272461 -1.0126876831054688 0 25.639535903930664 -38.99991226196289 0
          -10.744768142700195 36.98561477661133 0 -13.972332954406738 41.80059051513672 0
          4.895689964294434 -35.95735168457031 0 -29.966135025024414 45.329349517822266 0
          49.03803253173828 -26.006732940673828 0 -48.62886428833008 -11.199079513549805 0
          27.999120712280273 -2.1752400398254395 0 3.9052789211273193 -48.30048751831055 0
          40.10407257080078 -30.236980438232422 0 38.743690490722656 -5.780389785766602 0
          -34.93903732299805 -25.944766998291016 0 29.907175064086914 -2.8609447479248047 0
          -41.34266662597656 14.250496864318848 0 13.579727172851562 8.178218841552734 0
          22.752840042114258 -14.589113235473633 0 17.807666778564453 21.10932159423828 0
          -33.627708435058594 -36.886417388916016 0 -5.21309757232666 -46.111812591552734 0
          29.670717239379883 -33.3022575378418 0 33.52301788330078 -17.255449295043945 0
          15.573092460632324 -8.160200119018555 0 27.799903869628906 -38.7426643371582 0