<?xml version="1.0"?>
<VTKFile type="PolyData" version="0.1" byte_order="LittleEndian" header_type="UInt32" compressor="vtkZLibDataCompressor">
  <PolyData>
    <Piece NumberOfPoints="154" NumberOfVerts="0" NumberOfLines="0" NumberOfStrips="0" NumberOfPolys="0">
      <PointData>
        <DataArray type="Int32" Name="id" format="ascii" RangeMin="0" RangeMax="153">
          0 1 2 3 4 5
          6 7 8 9 10 11
          12 13 14 15 16 17
          18 19 20 21 22 23
          24 25 26 27 28 29
          30 31 32 33 34 35
          36 37 38 39 40 41
          42 43 44 45 46 47
          48 49 50 51 52 53
          54 55 56 57 58 59
          60 61 62 63 64 65
          66 67 68 69 70 71
          72 73 74 75 76 77
          78 79 80 81 82 83
          84 85 86 87 88 89
          90 91 92 93 94 95
          96 97 98 99 100 101
          102 103 104 105 106 107
          108 109 110 111 112 113
          114 115 116 117 118 119
          120 121 122 123 124 125
          126 127 128 129 130 131
          132 133 134 135 136 137
          138 139 140 141 142 143
          144 145 146 147 148 149
          150 151 152 153
        </DataArray>
        <DataArray type="Float64" Name="director" NumberOfComponents="3" format="ascii" RangeMin="0.9999999999999999" RangeMax="1">
          -0.9052625133005796 -0.4248526591804716 0 -0.21604383545611514 -0.9763836649398694 0
          -0.4646321429702165 -0.8855037954288532 0 -0.030022003916530118 0.9995492380472489 0
          -0.529861521623295 0.8480841750103857 0 0.9089873365069225 0.4168237302146445 0
          0.9997326332562235 -0.023122759406637543 0 0.8408306949631521 0.5412982010017977 0
          0.9984350857833978 0.0559229780743047 0 -0.6657074682783388 -0.7462128159435781 0
          -0.739098994008613 0.673596820847201 0 -0.9715345339442168 -0.23689797245606276 0
          -0.090539848371751 -0.9958928335201637 0 -0.3605868051984928 0.932725659514492 0
          0.9067999537621719 0.4215611982345184 0 0.9463584609841162 0.3231186520827526 0
          -0.7762209387395977 -0.6304609855194988 0 -0.9950446130240903 0.0994294628957555 0
          0.999668860146756 0.025732665094886715 0 -0.9864620229106319 -0.16398986967207432 0
          0.8164272351393339 0.5774483264524566 0 0.8165858895783283 -0.5772239469578251 0
          -0.7020201394532826 -0.7121570920815109 0 0.7082875630624212 0.705924024248429 0
          -0.9097726106376804 -0.4151069704708649 0 -0.5749713052455871 0.8181735745819378 0
          0.9426861463379517 -0.3336807298938642 0 0.9774431669669316 0.21119861588006467 0
          -0.9846914277224489 -0.17430660391943043 0 -0.2998021522501941 -0.9540013991112127 0
          0.532936666013666 0.8461551335412664 0 -0.9784505975438087 -0.20648106006644684 0
          -0.99753024303316 -0.07023826759114238 0 0.11564075043943903 0.9932911037746203 0
          0.8749994903432873 -0.48412383942436416 0 -0.026906553827043773 0.9996379531416124 0
          0.5584746586351242 0.829521582396975 0 -0.4010215362314624 -0.9160686259656303 0
          -0.938415145298344 -0.34550979012856925 0 0.984553169794036 -0.17508585279375458 0
          -0.3982904672427214 0.917259343753758 0 0.46342274047680226 -0.8861373277370559 0
          0.6248620044445355 -0.7807352146544674 0 -0.9729899577805962 -0.23084744325661 0
          0.05906095488139179 0.9982543782065262 0 -0.6717801007015219 0.7407506303078338 0
          0.796602904407294 -0.6045029467999835 0 -0.49028871192540546 0.8715600833898526 0
          -0.3138133493951779 -0.9494846927367392 0 -0.9376306341092466 0.34763313130352236 0
          0.486061672209071 -0.8739245109329076 0 0.8292521070762442 -0.5588747112811683 0
          0.9617350855664423 -0.27398106721178384 0 0.2761557000361334 0.9611129118566419 0
          -0.2714989348682433 0.9624387400585085 0 -0.9943491541357613 0.1061591242875335 0
          -0.9831508043972581 -0.18279632330280698 0 0.5953310285213889 0.8034805327322283 0
          -0.2395247624152833 -0.9708902554819994 0 0.8078284028963023 -0.5894177393614901 0
          -0.8363000480785363 -0.548272039761137 0 -0.38368211437828176 -0.9234652322130006 0
          -0.82523420146675 -0.5647906804556316 0 0.8341160805957304 -0.5515889448598631 0
          0.8567034624453731 -0.5158092452003058 0 -0.9879906312724007 -0.15451379394074546 0
          0.9933125340911146 -0.11545652695923374 0 -0.9712497569164371 -0.23806282719013858 0
          -0.6388880405142818 0.7692997281215049 0 0.9948608132245309 0.10125197435223209 0
          -0.23852756978323775 0.9711357260719548 0 -0.05360417898578745 0.9985622624530028 0
          -0.03879808061045474 0.9992470710194474 0 0.020529744952406292 0.9997892425767488 0
          0.2982943671783284 -0.954473923430955 0 -0.9974586688643468 0.07124748351602013 0
          -0.9424826293813732 -0.3342551320688633 0 0.5886688136932483 -0.8083743116805381 0
          -0.46098267519970654 0.8874091351601706 0 0.4122492032420451 -0.9110711247901006 0
          -0.7196497300396787 0.6943372855131845 0 0.8899948216170835 -0.4559706322722722 0
          -0.47383340435322263 -0.8806145041498212 0 -0.9576529455634797 -0.2879250524938583 0
          -0.9578530633792066 -0.2872586099233051 0 0.31419207067631216 0.9493594381076808 0
          -0.9439539591837469 -0.33007714695405527 0 0.3211642051130791 -0.9470235231260542 0
          0.9945223979386958 -0.10452368151890894 0 -0.007528732002848724 0.9999716586955999 0
          -0.3984800598239996 -0.917176995962427 0 -0.844168604460275 -0.5360777623102752 0
          -0.980101504007224 -0.19849695675948675 0 0.18752182426033834 -0.9822604366592776 0
          0.3135715559496868 0.9495645735279368 0 0.9868793708960844 0.16145930539844633 0
          -0.9809012938282918 0.19450617410761795 0 0.9876907433146263 -0.15641929411233488 0
          -0.9346011150209228 -0.3556975622655401 0 0.7349880074144333 -0.6780801051180908 0
          -0.48219229260294394 0.8760654044957584 0 0.6922007157921264 -0.7217050429759154 0
          -0.8173754884767205 -0.5761052949222413 0 0.8889291013434718 -0.45804481525794793 0
          -0.7038813496351043 0.7103175667515651 0 -0.9444172892867649 0.3287491196889188 0
          0.9003922660208135 0.4350790356819146 0 0.6059182372021126 -0.7955269258962165 0
          0.44396131352095775 -0.8960459542326754 0 -0.9987350102198305 -0.05028299276291172 0
          -0.1612318828778872 0.9869165516616141 0 -0.03194290046959727 -0.9994896953493765 0
          0.23347990425066062 -0.9723616273337314 0 0.8956050991328159 -0.4448499819122159 0
          0.03740699082305002 -0.9993001135982945 0 0.24960019364673394 -0.9683489780711874 0
          -0.45947221669580895 -0.8881921425483562 0 -0.8194434503472677 -0.5731600402007846 0
          -0.8155763875051227 0.5786494242147778 0 0.5779839963062625 -0.8160480990810789 0
          0.9905509298949842 0.13714538010513583 0 0.5302613817816938 -0.8478342214082708 0
          0.3919881177505748 -0.919970279706014 0 -0.022929322821260582 0.9997370885162551 0
          0.5810514918215931 -0.8138667973642254 0 -0.41362247661450585 -0.9104484866478073 0
          -0.9894308583704424 -0.14500543611992484 0 0.7690320762791332 -0.6392101889471143 0
          -0.7383461310392926 0.674421967894958 0 -0.9492554864347886 0.31450599592607587 0
          0.5775293258301027 0.8163699393082936 0 0.6651725006919496 0.7466897242651853 0
          0.8478075553527823 0.5303040157180964 0 -0.9280443533381012 0.372469701099654 0
          -0.9341805579348808 0.3568006238454115 0 -0.968727724990803 -0.24812616716933203 0
          0.49249514620855017 0.870315190583859 0 0.8457662833325463 0.5335535530552213 0
          -0.847681940281755 -0.5305047861425559 0 0.42332939182807644 0.9059758418492575 0
          0.08436706144887543 -0.9964347439458751 0 0.9993055870652671 -0.03726048389570363 0
          -0.828893131684179 0.5594069862334526 0 0.7090701412481552 0.7051379544389319 0
          0.9994708371292236 0.032527614855825664 0 -0.7339383248091079 -0.6792161183131629 0
          0.29610097357513504 0.9551566434087433 0 -0.8970647250436948 0.44189917298211834 0
          -0.7233060676200015 0.690527575513165 0 0.7358572410613395 0.6771367075986898 0
          0.06698787238612994 -0.997753789746338 0 0.2484117456883259 0.9686545331562118 0
          0.5787543593817437 0.815501926114603 0 0.24147696936634844 -0.9704065505063554 0
          <InformationKey name="L2_NORM_RANGE" location="vtkDataArray" length="2">
            <Value index="0">
              1
            </Value>
            <Value index="1">
              1
            </Value>
          </InformationKey>
        </DataArray>
        <DataArray type="Float64" Name="velocity" NumberOfComponents="3" format="ascii" RangeMin="2.98391528750295" RangeMax="65.61664053985334">
          20.472372037415383 -30.489259884928693 0 -7.778161120144524 43.605506408926914 0
          -35.778279556590725 14.318100471258902 0 -2.7267860528004704 -6.306708942777526 0
          -25.56803597993237 0.5919415230237348 0 40.69440930810454 -42.34960265147567 0
          21.390392053252754 11.720491675449018 0 -31.091580543867785 -10.301819378431787 0
          -22.233594277397 35.80993014386058 0 40.8936574712134 11.727908496204755 0
          -31.918129728714472 1.502371966558826 0 32.46317064138093 -14.067556233339687 0
          31.61170207931397 -20.66117562390716 0 -32.788218903188394 -0.7210412736466054 0
          -30.467523066969363 36.43074923190564 0 -29.58028331655805 11.627227611362315 0
          37.80505508071815 -10.753091333426255 0 44.65772551607054 -33.330173144632525 0
          47.18774005931614 6.396489460552942 0 9.836891189866492 -36.87781496106794 0
          6.677739541459459 5.438027088135769 0 -18.951003944933063 -37.93510690561732 0
          23.77908201111339 -25.727634747998636 0 32.285914726045576 -31.45240287607238 0
          -18.732306147503376 38.172541468590836 0 17.42129460906331 23.929755673071398 0
          -43.74567596165927 -36.843843838172035 0 -41.00470913383489 -49.1685554695042 0
          -4.3489588147394045 13.430332075080756 0 2.9762992276979077 -0.21305715242312573 0
          -16.420210149222868 -24.717665071237764 0 -26.63245586108499 -32.68369682188443 0
          9.59810303037343 22.68931438280859 0 37.757309281314306 20.71597266757422 0
          -26.523439665569285 -2.200425364398683 0 -48.17882370239545 24.733119867345934 0
          15.472358145094617 -42.19330576503555 0 -2.7230899171649696 49.647506705142575 0
          3.209752212846098 39.943600631846664 0 27.290092728339346 -29.624030405099575 0
          40.710862227344634 -12.518743865476708 0 34.808888796398136 -17.330075407408792 0
          -17.326333983387784 15.921061981020685 0 8.676498234140595 -45.101679767889145 0
          26.99656655139428 -0.8247828969564566 0 -1.181598492863479 -7.087342925864128 0
          -10.527228461045638 27.645380145270124 0 47.47543864880045 24.850515939083976 0
          13.45020038299144 -42.781974126121774 0 13.33632968921519 2.89206325620421 0
          -20.383234879262602 -17.467213088655853 0 13.111992425538233 49.45054225750374 0
          1.6047826830209004 22.445391370448775 0 -25.442525168919026 -16.766088433362327 0
          24.860911549332883 18.296648546241826 0 18.127137052491975 -42.11576276898946 0
          -4.106371249565804 19.81468592825003 0 -43.2115168522386 -43.085994704941484 0
          2.7042817825837204 -23.795120132132308 0 -1.6624837545658195 -36.91945356486498 0
          -40.55592314206473 -37.96183180819797 0 46.98372058379586 25.62816454897687 0
          -23.182362140209666 22.4905983535036 0 -8.42374893276238 -2.5281598168396826 0
          -44.45585735866184 11.374414308737222 0 -0.9380815156004232 40.44748670579848 0
          43.5214270198436 41.82766196839604 0 -19.617472876146607 29.010177679462174 0
          -27.377259211045168 -5.104813753149479 0 1.0108912986547693 -26.93680745999526 0
          21.18807799653547 48.4452609761332 0 15.521324819791857 -22.733301715898534 0
          -3.0984436752635744 -49.699879474370995 0 -5.357606698271908 47.09441502974741 0
          -19.533649987483585 -28.48909553641595 0 -25.241492794096537 30.645102659141713 0
          -1.3628901407151872 -9.249808436218693 0 -28.437070584076316 4.0252086974848424 0
          22.302423751473526 -21.630608392707323 0 4.286209731170565 25.592468486596516 0
          -16.80227135673981 30.176297340482108 0 35.70724318896097 -48.51082997011254 0
          38.494266527440914 9.308694076898924 0 -41.37827709570729 42.48759424258512 0
          41.371957205314274 48.07567751376408 0 40.00221093710812 44.971458396046486 0
          43.45219546574209 -49.16757290067578 0 27.77940311086799 -47.40411222574361 0
          8.787704962513757 14.978077069606684 0 -17.176354508003442 -38.89206379839693 0
          -37.572734230027905 47.39150589914381 0 3.322947059262674 16.230028184641725 0
          20.82576325094061 -43.12614201683975 0 -29.404442159877867 -6.6570323329381935 0
          -48.88074135310182 -43.07374742736768 0 -15.693819004659524 -18.776991949103287 0
          49.2742614956165 -23.093566379026992 0 35.70662412955289 -14.438908494432013 0
          24.676827977366614 34.48562696853686 0 -28.28613766609157 46.49521791482232 0
          21.219265309149932 48.266786794162286 0 25.989900495501132 -30.673962513745963 0
          -14.741048879365302 -30.369965831724773 0 33.206792723445574 45.25947670903301 0
          26.73700517552618 36.1968809297727 0 -4.433626259916984 -16.731616061562868 0
          33.82599634129042 5.430878965379037 0 -37.91344272052366 -28.781627030961573 0
          -0.8760744559602713 -9.034520229977083 0 25.951148963832622 -14.29357740625877 0
          27.17860558051683 48.15404052238152 0 34.61617221348607 33.462162550860555 0
          -13.28055184508198 -44.93740558320786 0 47.55616001461492 34.25892934866374 0
          36.946038841117556 -42.45015674570037 0 -46.76239316488481 11.393180618063838 0
          23.568028568935404 11.552780427737098 0 16.263007945057282 45.12644264060411 0
          -23.411248530157515 41.93857265065735 0 -38.160345232049345 -18.69342940760771 0
          37.21153998486223 -26.635630373860984 0 30.80584946405935 5.653176675427417 0
          44.35923105765637 0.370346282237378 0 16.64168251311186 -34.7034267378138 0
          47.322877480901255 13.376690736606477 0 -32.1350217035443 -42.58571958176201 0
          -0.5025219679409361 28.59799073613067 0 -3.5320261053794297 38.30316610148137 0
          14.736889949280638 40.32409694969634 0 -49.402638529229115 19.356180838194604 0
          8.508964450503598 -39.46387075781778 0 49.03198966734128 -27.000797471280585 0
          -16.70921662991016 18.938285128010065 0 46.14207459237997 -27.3400906744995 0
          42.424140585792586 37.62461911345025 0 -6.825547086494495 -2.911259141055119 0
          6.210247997996007 33.76154121673389 0 -35.16911208657487 13.927818279591207 0
          49.5593687100304 13.93941034113417 0 -6.0481675260535965 -47.161165000275155 0
          -41.68490984500472 3.0367185203014984 0 28.200151364646487 23.664522522360798 0
          -30.983903256438072 -23.817273645282434 0 -4.775523168997552 -3.9973115200368454 0
          17.36371431475763 -32.304692769073746 0 -31.21691646176371 -40.35131875297581 0
          -17.61253928181918 -32.96735050248542 0 -47.52659271635095 33.064298464373394 0
          -25.51716157275273 -35.79649925661745 0 -34.4558032257712 -19.698927528483058 0
          -46.64276824331557 -9.071061809886274 0 28.312364537561464 -5.662808823633235 0
          -48.25117889494449 -21.421563451189467 0 45.139670111270334 -32.86849758057289 0
          <InformationKey name="L2_NORM_RANGE" location="vtkDataArray" length="2">
            <Value index="0">
              2.9839152875
            </Value>
            <Value index="1">
              65.61664054
            </Value>
          </InformationKey>
        </DataArray>
        <DataArray type="Float64" Name="force" NumberOfComponents="3" format="ascii" RangeMin="0.49999999999999994" RangeMax="0.5">
          -0.4526312566502898 -0.2124263295902358 0 -0.10802191772805757 -0.4881918324699347 0
          -0.23231607148510824 -0.4427518977144266 0 -0.015011001958265059 0.49977461902362447 0
          -0.2649307608116475 0.42404208750519284 0 0.45449366825346127 0.20841186510732224 0
          0.49986631662811176 -0.011561379703318771 0 0.42041534748157605 0.27064910050089885 0
          0.4992175428916989 0.02796148903715235 0 -0.3328537341391694 -0.37310640797178907 0
          -0.3695494970043065 0.3367984104236005 0 -0.4857672669721084 -0.11844898622803138 0
          -0.0452699241858755 -0.49794641676008183 0 -0.1802934025992464 0.466362829757246 0
          0.45339997688108596 0.2107805991172592 0 0.4731792304920581 0.1615593260413763 0
          -0.38811046936979887 -0.3152304927597494 0 -0.49752230651204515 0.04971473144787775 0
          0.499834430073378 0.012866332547443357 0 -0.49323101145531595 -0.08199493483603716 0
          0.40821361756966695 0.2887241632262283 0 0.40829294478916417 -0.28861197347891254 0
          -0.3510100697266413 -0.35607854604075545 0 0.3541437815312106 0.3529620121242145 0
          -0.4548863053188402 -0.20755348523543246 0 -0.2874856526227936 0.4090867872909689 0
          0.47134307316897583 -0.1668403649469321 0 0.4887215834834658 0.10559930794003233 0
          -0.49234571386122444 -0.08715330195971521 0 -0.14990107612509704 -0.47700069955560637 0
          0.266468333006833 0.4230775667706332 0 -0.48922529877190435 -0.10324053003322342 0
          -0.49876512151658 -0.03511913379557119 0 0.057820375219719514 0.49664555188731013 0
          0.43749974517164364 -0.24206191971218208 0 -0.013453276913521887 0.4998189765708062 0
          0.2792373293175621 0.4147607911984875 0 -0.2005107681157312 -0.45803431298281516 0
          -0.469207572649172 -0.17275489506428462 0 0.492276584897018 -0.08754292639687729 0
          -0.1991452336213607 0.458629671876879 0 0.23171137023840113 -0.44306866386852795 0
          0.3124310022222678 -0.3903676073272337 0 -0.4864949788902981 -0.115423721628305 0
          0.029530477440695896 0.4991271891032631 0 -0.33589005035076097 0.3703753151539169 0
          0.398301452203647 -0.30225147339999175 0 -0.24514435596270273 0.4357800416949263 0
          -0.15690667469758895 -0.4747423463683696 0 -0.4688153170546233 0.17381656565176118 0
          0.2430308361045355 -0.4369622554664538 0 0.4146260535381221 -0.27943735564058414 0
          0.48086754278322114 -0.13699053360589192 0 0.1380778500180667 0.48055645592832097 0
          -0.13574946743412164 0.48121937002925425 0 -0.49717457706788065 0.05307956214376675 0
          -0.49157540219862905 -0.09139816165140349 0 0.29766551426069443 0.40174026636611415 0
          -0.11976238120764165 -0.4854451277409997 0 0.40391420144815116 -0.29470886968074506 0
          -0.41815002403926815 -0.2741360198805685 0 -0.19184105718914088 -0.4617326161065003 0
          -0.412617100733375 -0.2823953402278158 0 0.4170580402978652 -0.27579447242993155 0
          0.42835173122268655 -0.2579046226001529 0 -0.49399531563620036 -0.07725689697037273 0
          0.4966562670455573 -0.05772826347961687 0 -0.48562487845821856 -0.11903141359506929 0
          -0.3194440202571409 0.38464986406075247 0 0.49743040661226545 0.05062598717611604 0
          -0.11926378489161887 0.4855678630359774 0 -0.026802089492893724 0.4992811312265014 0
          -0.01939904030522737 0.4996235355097237 0 0.010264872476203146 0.4998946212883744 0
          0.1491471835891642 -0.4772369617154775 0 -0.4987293344321734 0.035623741758010065 0
          -0.4712413146906866 -0.16712756603443166 0 0.29433440684662415 -0.40418715584026904 0
          -0.23049133759985327 0.4437045675800853 0 0.20612460162102256 -0.4555355623950503 0
          -0.35982486501983935 0.34716864275659226 0 0.44499741080854177 -0.2279853161361361 0
          -0.23691670217661132 -0.4403072520749106 0 -0.47882647278173984 -0.14396252624692915 0
          -0.4789265316896033 -0.14362930496165255 0 0.15709603533815608 0.4746797190538404 0
          -0.47197697959187346 -0.16503857347702763 0 0.16058210255653954 -0.4735117615630271 0
          0.4972611989693479 -0.05226184075945447 0 -0.003764366001424362 0.49998582934779995 0
          -0.1992400299119998 -0.4585884979812135 0 -0.4220843022301375 -0.2680388811551376 0
          -0.490050752003612 -0.09924847837974338 0 0.09376091213016917 -0.4911302183296388 0
          0.1567857779748434 0.4747822867639684 0 0.4934396854480422 0.08072965269922316 0
          -0.4904506469141459 0.09725308705380897 0 0.4938453716573131 -0.07820964705616744 0
          -0.4673005575104614 -0.17784878113277006 0 0.36749400370721663 -0.3390400525590454 0
          -0.24109614630147197 0.4380327022478792 0 0.3461003578960632 -0.3608525214879577 0
          -0.40868774423836024 -0.28805264746112064 0 0.4444645506717359 -0.22902240762897397 0
          -0.35194067481755215 0.35515878337578255 0 -0.47220864464338247 0.1643745598444594 0
          0.45019613301040673 0.2175395178409573 0 0.3029591186010563 -0.39776346294810827 0
          0.22198065676047887 -0.4480229771163377 0 -0.49936750510991523 -0.02514149638145586 0
          -0.0806159414389436 0.49345827583080704 0 -0.015971450234798634 -0.49974484767468824 0
          0.11673995212533031 -0.4861808136668657 0 0.44780254956640797 -0.22242499095610796 0
          0.01870349541152501 -0.49965005679914726 0 0.12480009682336697 -0.4841744890355937 0
          -0.22973610834790448 -0.4440960712741781 0 -0.40972172517363387 -0.2865800201003923 0
          -0.40778819375256137 0.2893247121073889 0 0.28899199815313126 -0.40802404954053945 0
          0.4952754649474921 0.06857269005256791 0 0.2651306908908469 -0.4239171107041354 0
          0.1959940588752874 -0.459985139853007 0 -0.011464661410630291 0.49986854425812755 0
          0.29052574591079655 -0.4069333986821127 0 -0.20681123830725293 -0.45522424332390365 0
          -0.4947154291852212 -0.07250271805996242 0 0.3845160381395666 -0.31960509447355717 0
          -0.3691730655196463 0.337210983947479 0 -0.4746277432173943 0.15725299796303793 0
          0.2887646629150514 0.4081849696541468 0 0.3325862503459748 0.37334486213259266 0
          0.42390377767639115 0.2651520078590482 0 -0.4640221766690506 0.186234850549827 0
          -0.4670902789674404 0.17840031192270575 0 -0.4843638624954015 -0.12406308358466601 0
          0.24624757310427509 0.4351575952919295 0 0.42288314166627317 0.26677677652761067 0
          -0.4238409701408775 -0.26525239307127796 0 0.21166469591403822 0.45298792092462875 0
          0.042183530724437715 -0.49821737197293753 0 0.49965279353263353 -0.018630241947851817 0
          -0.4144465658420895 0.2797034931167263 0 0.3545350706240776 0.35256897721946595 0
          0.4997354185646118 0.016263807427912832 0 -0.36696916240455396 -0.33960805915658143 0
          0.14805048678756752 0.47757832170437164 0 -0.4485323625218474 0.22094958649105917 0
          -0.36165303381000075 0.3452637877565825 0 0.36792862053066977 0.3385683537993449 0
          0.03349393619306497 -0.498876894873169 0 0.12420587284416296 0.4843272665781059 0
          0.28937717969087184 0.4077509630573015 0 0.12073848468317422 -0.4852032752531777 0
          <InformationKey name="L2_NORM_RANGE" location="vtkDataArray" length="2">
            <Value index="0">
              0.5
            </Value>
            <Value index="1">
              0.5
            </Value>
          </InformationKey>
        </DataArray>
        <DataArray type="Float64" Name="radius" format="ascii" RangeMin="1" RangeMax="1">
          1 1 1 1 1 1
          1 1 1 1 1 1
          1 1 1 1 1 1
          1 1 1 1 1 1
          1 1 1 1 1 1
          1 1 1 1 1 1
          1 1 1 1 1 1
          1 1 1 1 1 1
          1 1 1 1 1 1
          1 1 1 1 1 1
          1 1 1 1 1 1
          1 1 1 1 1 1
          1 1 1 1 1 1
          1 1 1 1 1 1
          1 1 1 1 1 1
          1 1 1 1 1 1
          1 1 1 1 1 1
          1 1 1 1 1 1
          1 1 1 1 1 1
          1 1 1 1 1 1
          1 1 1 1 1 1
          1 1 1 1 1 1
          1 1 1 1 1 1
          1 1 1 1 1 1
          1 1 1 1 1 1
          1 1 1 1
        </DataArray>
      </PointData>
      <CellData>
      </CellData>
      <Points>
        <DataArray type="Float32" Name="Points" NumberOfComponents="3" format="ascii" RangeMin="1.988399864890005" RangeMax="67.71685137539664">
          -36.854248046875 33.75716781616211 0 47.15598678588867 -27.66211700439453 0
          -19.17352867126465 4.755190849304199 0 -30.893007278442383 49.28227233886719 0
          49.27687454223633 46.44740676879883 0 22.941078186035156 48.29189682006836 0
          -38.97608184814453 29.747779846191406 0 -20.163047790527344 -49.55442810058594 0
          -38.25278091430664 13.74724006652832 0 37.68320846557617 0.2334444373846054 0
          29.834611892700195 -13.670934677124023 0 -28.5660343170166 18.176054000854492 0
          -10.270618438720703 23.875709533691406 0 -2.646115303039551 -7.880387306213379 0
          -32.59408187866211 -19.525846481323242 0 29.613880157470703 -18.7858943939209 0
          37.369869232177734 -35.44529724121094 0 49.38373565673828 32.046058654785156 0
          -37.392337799072266 26.12989616394043 0 -1.0040313005447388 15.80225658416748 0
          -37.49605941772461 -29.0699405670166 0 -45.13374328613281 -46.33462905883789 0
          -9.033897399902344 -3.9457716941833496 0 -1.0630770921707153 29.516387939453125 0
          42.098148345947266 30.78432273864746 0 20.81569480895996 -49.496620178222656 0
          20.82442283630371 14.031822204589844 0 -4.526846408843994 27.40959358215332 0
          7.342751979827881 37.78498840332031 0 31.00591278076172 -47.863037109375 0
          32.00639343261719 32.31573486328125 0 43.82010269165039 -8.621437072753906 0
          -8.00013256072998 7.995102882385254 0 -34.1939811706543 25.977235794067383 0
          -26.27618980407715 30.760446548461914 0 49.11492919921875 -16.978927612304688 0
          -20.214874267578125 -48.61253356933594 0 -28.621702194213867 40.635189056396484 0
          34.89421463012695 45.649009704589844 0 27.91364097595215 49.079383850097656 0
          -43.253849029541016 29.342859268188477 0 9.014881134033203 23.364072799682617 0
          19.255714416503906 18.01434326171875 0 -10.616198539733887 6.0455498695373535 0
          -29.27942657470703 2.4434587955474854 0 -9.546095848083496 -14.82129955291748 0
          9.817909240722656 -14.219715118408203 0 46.60154724121094 -34.54841613769531 0
          -10.684913635253906 -11.25941276550293 0 22.7342472076416 -11.308576583862305 0
          42.549922943115234 -5.845834732055664 0 35.48347091674805 11.752068519592285 0
          -37.622283935546875 -2.404144763946533 0 -15.947440147399902 2.9679908752441406 0
          21.528846740722656 48.73977279663086 0 22.007293701171875 41.3287239074707 0
          0.6265972256660461 5.913118362426758 0 0.4430158734321594 -3.7981300354003906 0
          4.525087833404541 -5.432321071624756 0 35.15304946899414 10.308279991149902 0
          0.20411616563796997 47.51609420776367 0 -46.81519317626953 47.68354034423828 0
          -13.63818073272705 17.69049072265625 0 -14.885603904724121 35.3564567565918 0
          -45.57884216308594 15.75095272064209 0 25.149269104003906 -36.62510299682617 0
          48.68238067626953 -40.24258804321289 0 -22.021068572998047 30.377094268798828 0
          -42.425960540771484 12.706310272216797 0 -49.61801528930664 18.112268447875977 0
          3.1425888538360596 -6.124720573425293 0 -29.915803909301758 -36.15177536010742 0
          -11.445069313049316 26.536346435546875 0 -45.755340576171875 -24.81439208984375 0
          0.7228094935417175 32.7503776550293 0 48.100975036621094 32.376007080078125 0
          -19.54009437561035 -44.533504486083984 0 -24.95017433166504 3.907092809677124 0
          38.65315628051758 -15.640570640563965 0 -47.171878814697266 -33.77596664428711 0
          38.055564880371094 -29.137882232666016 0 -23.050865173339844 -0.8911267518997192 0
          -27.522838592529297 -0.6805068850517273 0 44.983455657958984 15.314024925231934 0
          25.84569549560547 -6.763337135314941 0 5.171479225158691 -44.2887077331543 0
          -17.572940826416016 -9.662269592285156 0 40.82583999633789 31.005882263183594 0
          -24.24898338317871 -36.568511962890625 0 -0.8950828909873962 -11.468835830688477 0
          21.801115036010742 -21.51859474182129 0 12.193765640258789 31.106426239013672 0
          -18.937013626098633 -12.135085105895996 0 -15.698016166687012 31.29018211364746 0
          16.95221519470215 -12.245405197143555 0 -4.294426441192627 -19.686243057250977 0
          40.898921966552734 -1.1302803754806519 0 25.56268882751465 -39.03935241699219 0
          -10.741623878479004 37.09660720825195 0 -13.93178653717041 41.797725677490234 0
          4.891779899597168 -35.91614532470703 0 -29.984710693359375 45.37815856933594 0
          49.031620025634766 -26.134559631347656 0 -48.5911865234375 -11.10246467590332 0
          27.962505340576172 -2.3317580223083496 0 3.894296646118164 -48.41182327270508 0
          40.15439224243164 -30.30396842956543 0 38.754432678222656 -5.7464118003845215 0
          -35.04500961303711 -25.94790267944336 0 29.787851333618164 -2.9245266914367676 0
          -41.30573272705078 14.251652717590332 0 13.585363388061523 8.216867446899414 0
          22.7473201751709 -14.597674369812012 0 17.88140106201172 21.203224182128906 0
          -33.68328857421875 -36.86314392089844 0 -5.163876056671143 -46.08119583129883 0
          29.621917724609375 -33.190101623535156 0 33.46258544921875 -17.373313903808594 0
          15.682600021362305 -8.180994033813477 0 27.902359008789062 -38.86331558227539 0