<?xml version="1.0"?>
<VTKFile type="PolyData" version="0.1" byte_order="LittleEndian" header_type="UInt32" compressor="vtkZLibDataCompressor">
  <PolyData>
    <Piece NumberOfPoints="154" NumberOfVerts="0" NumberOfLines="0" NumberOfStrips="0" NumberOfPolys="0">
      <PointData>
        <DataArray type="Int32" Name="id" format="ascii" RangeMin="0" RangeMax="153">
          0 1 2 3 4 5
          6 7 8 9 10 11
          12 13 14 15 16 17
          18 19 20 21 22 23
          24 25 26 27 28 29
          30 31 32 33 34 35
          36 37 38 39 40 41
          42 43 44 45 46 47
          48 49 50 51 52 53
          54 55 56 57 58 59
          60 61 62 63 64 65
          66 67 68 69 70 71
          72 73 74 75 76 77
          78 79 80 81 82 83
          84 85 86 87 88 89
          90 91 92 93 94 95
          96 97 98 99 100 101
          102 103 104 105 106 107
          108 109 110 111 112 113
          114 115 116 117 118 119
          120 121 122 123 124 125
          126 127 128 129 130 131
          132 133 134 135 136 137
          138 139 140 141 142 143
          144 145 146 147 148 149
          150 151 152 153
        </DataArray>
        <DataArray type="Float64" Name="director" NumberOfComponents="3" format="ascii" RangeMin="0.9999999999999999" RangeMax="1">
          -0.9134389991848008 -0.40697566852118994 0 -0.29101717747468464 -0.956717828000852 0
          -0.3958931032393974 -0.9182966028508871 0 -0.06420185178414754 0.9979369329910014 0
          -0.5207569890675741 0.8537049597708066 0 0.8752438070003845 0.4836820012234005 0
          0.9994843595433389 0.03210942273292527 0 0.8780664805463418 0.4785386669235419 0
          0.9996344298808182 0.027037133665601978 0 -0.6399836406517629 -0.7683885343354071 0
          -0.7374972096987471 0.6753501800448137 0 -0.9846923458505341 -0.17430141715824407 0
          0.009123917650631558 -0.9999583761970817 0 -0.4241158297462762 0.9056079521286392 0
          0.9197609124310764 0.392479125513643 0 0.9488218046706263 0.3158119424302634 0
          -0.7561904512390648 -0.6543515885629525 0 -0.9969439043339028 0.07812075019784491 0
          0.9999992068600206 0.0012594758154511015 0 -0.957618657981199 -0.2880390700691267 0
          0.8102098381150626 0.586139930581055 0 0.769572837935638 -0.6385590396444859 0
          -0.6930521780611063 -0.7208874242797946 0 0.6761570660489882 0.7367575055824163 0
          -0.9187708383275803 -0.39479126970949496 0 -0.6039451937189302 0.7970258483787109 0
          0.8952427793885217 -0.44557868660059874 0 0.9902164085012574 0.13954018895956438 0
          -0.9922401284540352 -0.12433634820727052 0 -0.29734015079670856 -0.9547716139078448 0
          0.49028920933612774 0.8715598035754946 0 -0.9927639199261948 -0.12008246871536157 0
          -0.999350706179967 -0.03603007157363364 0 0.16441845197190022 0.9863906795236682 0
          0.8897922563858887 -0.45636579678554895 0 -0.057474306394737565 0.9983469858242894 0
          0.6064282174902627 0.7951382376867451 0 -0.41529787449323746 -0.9096854816041636 0
          -0.9297955689995556 -0.3680763505969822 0 0.9859802876785208 -0.16686183598828513 0
          -0.45338349508127485 0.891315548157827 0 0.4615211430401407 -0.8871292096007898 0
          0.6342037009149922 -0.7731660014160783 0 -0.9803298201158217 -0.1973662681201643 0
          0.06683259879941408 0.9977642024735687 0 -0.6757349706865553 0.7371446597454534 0
          0.8163533202485501 -0.5775528170818389 0 -0.511103624612592 0.8595191009558023 0
          -0.2027830062699999 -0.9792236988390861 0 -0.9127094323537179 0.408609216847288 0
          0.521393583110328 -0.8533163138551692 0 0.8341381894436518 -0.5515555102722358 0
          0.9608886679302725 -0.27693495236821697 0 0.2089597469155021 0.9779242425510318 0
          -0.2086805549729229 0.977983857727822 0 -0.9862802702702343 0.16507946109578087 0
          -0.9654738164229186 -0.26050011478263213 0 0.5776013936760228 0.8163189511603391 0
          -0.2719056303540265 -0.962323920611859 0 0.8341113161111021 -0.5515961496742025 0
          -0.8460102623830167 -0.5331666118040582 0 -0.4722144596550766 -0.8814836947401036 0
          -0.8274940823366838 -0.5614744372611896 0 0.8418869074687398 -0.5396539956608507 0
          0.847241658255482 -0.5312076547984799 0 -0.9900184668471846 -0.14093770007187564 0
          0.9915403917255918 -0.12979850375354823 0 -0.981361466197059 -0.19217094646058916 0
          -0.6344481752176798 0.7729654021771972 0 0.9822814490771452 0.18741172535064 0
          -0.19732629199232538 0.980337867517398 0 -0.10084210456489619 0.9949024424268555 0
          -0.036641785151908836 0.9993284643103494 0 -0.045986941888966466 0.9989420409491738 0
          0.28696084525282906 -0.9579423120897114 0 -0.9989047510155604 0.046789939073920706 0
          -0.9534786398459246 -0.30146058342271814 0 0.6874980670362851 -0.7261862074023243 0
          -0.3685580042516646 0.9296047533774933 0 0.28669095182554316 -0.9580231198365539 0
          -0.6949884412993569 0.719020908221931 0 0.8946434705294416 -0.44678077469720673 0
          -0.5357815930815186 -0.844356609801232 0 -0.969740958985246 -0.24413617607060092 0
          -0.9711426068513533 -0.23849955378985055 0 0.3804641050537728 0.9247956881201554 0
          -0.9561339300305052 -0.2929298684743858 0 0.2668424402104544 -0.9637401683558334 0
          0.9993424399791759 -0.03625862182250049 0 -0.09401203561330206 0.9955710608288306 0
          -0.40271638911337343 -0.915324811167864 0 -0.842648295959091 -0.5384643435894713 0
          -0.9682142757692082 -0.25012220252650036 0 0.16742578807894273 -0.9858846816368256 0
          0.3707294733842328 0.9287408990478719 0 0.9800711330635303 0.19864685785475675 0
          -0.9856183113585014 0.16898681698527915 0 0.9887301859763031 -0.14970844778857711 0
          -0.8596186732324164 -0.5109361375261493 0 0.7521314418422705 -0.6590131214113017 0
          -0.6939480191531022 0.7200251014468076 0 0.6250011314326968 -0.7806238439273098 0
          -0.7344615625252813 -0.6786502878308698 0 0.9149094637102834 -0.40365910520309295 0
          -0.7384371954068555 0.6743222585972211 0 -0.9477071991368671 0.3191411360262958 0
          0.8658888034233032 0.5002365241624808 0 0.5522390332550977 -0.8336858222073079 0
          0.5047933589747672 -0.8632402126493944 0 -0.989453585093943 -0.1448502776826587 0
          -0.2076068348113664 0.9782123502285207 0 -0.006312197483460828 -0.9999800778830196 0
          0.31047487176064953 -0.950581587242888 0 0.9286206878357705 -0.37103048139394224 0
          0.05959887153824735 -0.9982224073378475 0 0.1981450400348868 -0.9801727108574148 0
          -0.4019477856276205 -0.9156625894012774 0 -0.8203532934860015 -0.571857039710687 0
          -0.7753544597716879 0.6315262953449793 0 0.5722931750361926 -0.820049097192963 0
          0.9636866012772384 0.2670358300279664 0 0.4815231218881621 -0.8764333877067202 0
          0.3279952236864311 -0.9446793811864891 0 -0.03751743577116257 0.9992959731796965 0
          0.5098876284446303 -0.8602410164361559 0 -0.46612003228543625 -0.884721490358533 0
          -0.9935715204710027 -0.11320615579083926 0 0.7961297770039842 -0.6051259192660535 0
          -0.73402702295953 0.6791202614892075 0 -0.9134962249641414 0.4068472034760258 0
          0.4747066568485948 0.8801440734014122 0 0.6455578100260418 0.7637114074795406 0
          0.8997223748759462 0.4364626537833304 0 -0.9128455437587885 0.4083050492459306 0
          -0.95123147864069 0.30847799604355325 0 -0.9592825042019768 -0.282448361885822 0
          0.5099325230064605 0.8602144046575049 0 0.8592507712647154 0.5115546032252977 0
          -0.8921018016663868 -0.4518344558171575 0 0.40945282899283847 0.9123312889678624 0
          0.07904158485072968 -0.9968713196116562 0 0.9989487480991415 -0.04584101516282031 0
          -0.8632162068627036 0.5048344087020675 0 0.719310373674744 0.694688841369933 0
          0.9999992259006133 -0.001244266118680849 0 -0.810222337352521 -0.5861226527400367 0
          0.3941861949163791 0.9190306000005366 0 -0.8984596598915705 0.4390560779075077 0
          -0.6698809361747419 0.742468538962865 0 0.7577940543600753 0.6524938093012985 0
          0.1692810881138121 -0.9855678125867361 0 0.19736392964837626 0.9803302909090134 0
          0.600051599293906 0.7999612979293597 0 0.11703848311075128 -0.9931273802846916 0
          <InformationKey name="L2_NORM_RANGE" location="vtkDataArray" length="2">
            <Value index="0">
              1
            </Value>
            <Value index="1">
              1
            </Value>
          </InformationKey>
        </DataArray>
        <DataArray type="Float64" Name="velocity" NumberOfComponents="3" format="ascii" RangeMin="2.98391528750295" RangeMax="65.61664053985334">
          20.472372037415383 -30.489259884928693 0 -7.778161120144524 43.605506408926914 0
          -35.778279556590725 14.318100471258902 0 -2.7267860528004704 -6.306708942777526 0
          -25.56803597993237 0.5919415230237348 0 40.69440930810454 -42.34960265147567 0
          21.390392053252754 11.720491675449018 0 -31.091580543867785 -10.301819378431787 0
          -22.233594277397 35.80993014386058 0 40.8936574712134 11.727908496204755 0
          -31.918129728714472 1.502371966558826 0 32.46317064138093 -14.067556233339687 0
          31.61170207931397 -20.66117562390716 0 -32.788218903188394 -0.7210412736466054 0
          -30.467523066969363 36.43074923190564 0 -29.58028331655805 11.627227611362315 0
          37.80505508071815 -10.753091333426255 0 44.65772551607054 -33.330173144632525 0
          47.18774005931614 6.396489460552942 0 9.836891189866492 -36.87781496106794 0
          6.677739541459459 5.438027088135769 0 -18.951003944933063 -37.93510690561732 0
          23.77908201111339 -25.727634747998636 0 32.285914726045576 -31.45240287607238 0
          -18.732306147503376 38.172541468590836 0 17.42129460906331 23.929755673071398 0
          -43.74567596165927 -36.843843838172035 0 -41.00470913383489 -49.1685554695042 0
          -4.3489588147394045 13.430332075080756 0 2.9762992276979077 -0.21305715242312573 0
          -16.420210149222868 -24.717665071237764 0 -26.63245586108499 -32.68369682188443 0
          9.59810303037343 22.68931438280859 0 37.757309281314306 20.71597266757422 0
          -26.523439665569285 -2.200425364398683 0 -48.17882370239545 24.733119867345934 0
          15.472358145094617 -42.19330576503555 0 -2.7230899171649696 49.647506705142575 0
          3.209752212846098 39.943600631846664 0 27.290092728339346 -29.624030405099575 0
          40.710862227344634 -12.518743865476708 0 34.808888796398136 -17.330075407408792 0
          -17.326333983387784 15.921061981020685 0 8.676498234140595 -45.101679767889145 0
          26.99656655139428 -0.8247828969564566 0 -1.181598492863479 -7.087342925864128 0
          -10.527228461045638 27.645380145270124 0 47.47543864880045 24.850515939083976 0
          13.45020038299144 -42.781974126121774 0 13.33632968921519 2.89206325620421 0
          -20.383234879262602 -17.467213088655853 0 13.111992425538233 49.45054225750374 0
          1.6047826830209004 22.445391370448775 0 -25.442525168919026 -16.766088433362327 0
          24.860911549332883 18.296648546241826 0 18.127137052491975 -42.11576276898946 0
          -4.106371249565804 19.81468592825003 0 -43.2115168522386 -43.085994704941484 0
          2.7042817825837204 -23.795120132132308 0 -1.6624837545658195 -36.91945356486498 0
          -40.55592314206473 -37.96183180819797 0 46.98372058379586 25.62816454897687 0
          -23.182362140209666 22.4905983535036 0 -8.42374893276238 -2.5281598168396826 0
          -44.45585735866184 11.374414308737222 0 -0.9380815156004232 40.44748670579848 0
          43.5214270198436 41.82766196839604 0 -19.617472876146607 29.010177679462174 0
          -27.377259211045168 -5.104813753149479 0 1.0108912986547693 -26.93680745999526 0
          21.18807799653547 48.4452609761332 0 15.521324819791857 -22.733301715898534 0
          -3.0984436752635744 -49.699879474370995 0 -5.357606698271908 47.09441502974741 0
          -19.533649987483585 -28.48909553641595 0 -25.241492794096537 30.645102659141713 0
          -1.3628901407151872 -9.249808436218693 0 -28.437070584076316 4.0252086974848424 0
          22.302423751473526 -21.630608392707323 0 4.286209731170565 25.592468486596516 0
          -16.80227135673981 30.176297340482108 0 35.70724318896097 -48.51082997011254 0
          38.494266527440914 9.308694076898924 0 -41.37827709570729 42.48759424258512 0
          41.371957205314274 48.07567751376408 0 40.00221093710812 44.971458396046486 0
          43.45219546574209 -49.16757290067578 0 27.77940311086799 -47.40411222574361 0
          8.787704962513757 14.978077069606684 0 -17.176354508003442 -38.89206379839693 0
          -37.572734230027905 47.39150589914381 0 3.322947059262674 16.230028184641725 0
          20.82576325094061 -43.12614201683975 0 -29.404442159877867 -6.6570323329381935 0
          -48.88074135310182 -43.07374742736768 0 -15.693819004659524 -18.776991949103287 0
          49.2742614956165 -23.093566379026992 0 35.70662412955289 -14.438908494432013 0
          24.676827977366614 34.48562696853686 0 -28.28613766609157 46.49521791482232 0
          21.219265309149932 48.266786794162286 0 25.989900495501132 -30.673962513745963 0
          -14.741048879365302 -30.369965831724773 0 33.206792723445574 45.25947670903301 0
          26.73700517552618 36.1968809297727 0 -4.433626259916984 -16.731616061562868 0
          33.82599634129042 5.430878965379037 0 -37.91344272052366 -28.781627030961573 0
          -0.8760744559602713 -9.034520229977083 0 25.951148963832622 -14.29357740625877 0
          27.17860558051683 48.15404052238152 0 34.61617221348607 33.462162550860555 0
          -13.28055184508198 -44.93740558320786 0 47.55616001461492 34.25892934866374 0
          36.946038841117556 -42.45015674570037 0 -46.76239316488481 11.393180618063838 0
          23.568028568935404 11.552780427737098 0 16.263007945057282 45.12644264060411 0
          -23.411248530157515 41.93857265065735 0 -38.160345232049345 -18.69342940760771 0
          37.21153998486223 -26.635630373860984 0 30.80584946405935 5.653176675427417 0
          44.35923105765637 0.370346282237378 0 16.64168251311186 -34.7034267378138 0
          47.322877480901255 13.376690736606477 0 -32.1350217035443 -42.58571958176201 0
          -0.5025219679409361 28.59799073613067 0 -3.5320261053794297 38.30316610148137 0
          14.736889949280638 40.32409694969634 0 -49.402638529229115 19.356180838194604 0
          8.508964450503598 -39.46387075781778 0 49.03198966734128 -27.000797471280585 0
          -16.70921662991016 18.938285128010065 0 46.14207459237997 -27.3400906744995 0
          42.424140585792586 37.62461911345025 0 -6.825547086494495 -2.911259141055119 0
          6.210247997996007 33.76154121673389 0 -35.16911208657487 13.927818279591207 0
          49.5593687100304 13.93941034113417 0 -6.0481675260535965 -47.161165000275155 0
          -41.68490984500472 3.0367185203014984 0 28.200151364646487 23.664522522360798 0
          -30.983903256438072 -23.817273645282434 0 -4.775523168997552 -3.9973115200368454 0
          17.36371431475763 -32.304692769073746 0 -31.21691646176371 -40.35131875297581 0
          -17.61253928181918 -32.96735050248542 0 -47.52659271635095 33.064298464373394 0
          -25.51716157275273 -35.79649925661745 0 -34.4558032257712 -19.698927528483058 0
          -46.64276824331557 -9.071061809886274 0 28.312364537561464 -5.662808823633235 0
          -48.25117889494449 -21.421563451189467 0 45.139670111270334 -32.86849758057289 0
          <InformationKey name="L2_NORM_RANGE" location="vtkDataArray" length="2">
            <Value index="0">
              2.9839152875
            </Value>
            <Value index="1">
              65.61664054
            </Value>
          </InformationKey>
        </DataArray>
        <DataArray type="Float64" Name="force" NumberOfComponents="3" format="ascii" RangeMin="0.49999999999999994" RangeMax="0.5">
          -0.4567194995924004 -0.20348783426059497 0 -0.14550858873734232 -0.478358914000426 0
          -0.1979465516196987 -0.45914830142544355 0 -0.03210092589207377 0.4989684664955007 0
          -0.26037849453378703 0.4268524798854033 0 0.43762190350019226 0.24184100061170025 0
          0.49974217977166946 0.016054711366462634 0 0.4390332402731709 0.23926933346177096 0
          0.4998172149404091 0.013518566832800989 0 -0.31999182032588147 -0.38419426716770355 0
          -0.36874860484937355 0.33767509002240687 0 -0.49234617292526706 -0.08715070857912204 0
          0.004561958825315779 -0.49997918809854086 0 -0.2120579148731381 0.4528039760643196 0
          0.4598804562155382 0.1962395627568215 0 0.47441090233531313 0.1579059712151317 0
          -0.3780952256195324 -0.32717579428147625 0 -0.4984719521669514 0.039060375098922455 0
          0.4999996034300103 0.0006297379077255508 0 -0.4788093289905995 -0.14401953503456336 0
          0.4051049190575313 0.2930699652905275 0 0.384786418967819 -0.31927951982224295 0
          -0.34652608903055315 -0.3604437121398973 0 0.3380785330244941 0.36837875279120813 0
          -0.45938541916379017 -0.19739563485474748 0 -0.3019725968594651 0.39851292418935547 0
          0.44762138969426085 -0.22278934330029937 0 0.4951082042506287 0.06977009447978219 0
          -0.4961200642270176 -0.06216817410363526 0 -0.14867007539835428 -0.4773858069539224 0
          0.24514460466806387 0.4357799017877473 0 -0.4963819599630974 -0.06004123435768079 0
          -0.4996753530899835 -0.01801503578681682 0 0.08220922598595011 0.4931953397618341 0
          0.44489612819294433 -0.22818289839277447 0 -0.028737153197368782 0.4991734929121447 0
          0.3032141087451313 0.39756911884337254 0 -0.20764893724661873 -0.4548427408020818 0
          -0.4648977844997778 -0.1840381752984911 0 0.4929901438392604 -0.08343091799414257 0
          -0.22669174754063742 0.4456577740789135 0 0.23076057152007035 -0.4435646048003949 0
          0.3171018504574961 -0.38658300070803914 0 -0.49016491005791085 -0.09868313406008215 0
          0.03341629939970704 0.49888210123678434 0 -0.33786748534327765 0.3685723298727267 0
          0.40817666012427506 -0.28877640854091946 0 -0.255551812306296 0.42975955047790115 0
          -0.10139150313499995 -0.48961184941954305 0 -0.45635471617685897 0.204304608423644 0
          0.260696791555164 -0.4266581569275846 0 0.4170690947218259 -0.2757777551361179 0
          0.48044433396513625 -0.13846747618410848 0 0.10447987345775105 0.4889621212755159 0
          -0.10434027748646145 0.488991928863911 0 -0.4931401351351172 0.08253973054789043 0
          -0.4827369082114593 -0.13025005739131607 0 0.2888006968380114 0.4081594755801696 0
          -0.13595281517701324 -0.4811619603059295 0 0.41705565805555106 -0.2757980748371012 0
          -0.42300513119150834 -0.2665833059020291 0 -0.2361072298275383 -0.4407418473700518 0
          -0.4137470411683419 -0.2807372186305948 0 0.4209434537343699 -0.26982699783042535 0
          0.423620829127741 -0.26560382739923993 0 -0.4950092334235923 -0.07046885003593782 0
          0.4957701958627959 -0.06489925187677412 0 -0.4906807330985295 -0.09608547323029458 0
          -0.3172240876088399 0.3864827010885986 0 0.4911407245385726 0.09370586267532 0
          -0.09866314599616269 0.490168933758699 0 -0.050421052282448094 0.4974512212134278 0
          -0.018320892575954418 0.4996642321551747 0 -0.022993470944483233 0.4994710204745869 0
          0.14348042262641453 -0.4789711560448557 0 -0.4994523755077802 0.023394969536960353 0
          -0.4767393199229623 -0.15073029171135907 0 0.34374903351814257 -0.36309310370116216 0
          -0.1842790021258323 0.46480237668874663 0 0.14334547591277158 -0.47901155991827693 0
          -0.34749422064967844 0.3595104541109655 0 0.4473217352647208 -0.22339038734860336 0
          -0.2678907965407593 -0.422178304900616 0 -0.484870479492623 -0.12206808803530046 0
          -0.48557130342567667 -0.11924977689492527 0 0.1902320525268864 0.4623978440600777 0
          -0.4780669650152526 -0.1464649342371929 0 0.1334212201052272 -0.4818700841779167 0
          0.49967121998958797 -0.018129310911250245 0 -0.04700601780665103 0.4977855304144153 0
          -0.20135819455668671 -0.457662405583932 0 -0.4213241479795455 -0.26923217179473563 0
          -0.4841071378846041 -0.12506110126325018 0 0.08371289403947137 -0.4929423408184128 0
          0.1853647366921164 0.46437044952393597 0 0.49003556653176517 0.09932342892737837 0
          -0.4928091556792507 0.08449340849263957 0 0.49436509298815157 -0.07485422389428856 0
          -0.4298093366162082 -0.25546806876307465 0 0.37606572092113527 -0.3295065607056509 0
          -0.3469740095765511 0.3600125507234038 0 0.3125005657163484 -0.3903119219636549 0
          -0.36723078126264064 -0.3393251439154349 0 0.4574547318551417 -0.20182955260154647 0
          -0.36921859770342774 0.33716112929861053 0 -0.47385359956843354 0.1595705680131479 0
          0.4329444017116516 0.2501182620812404 0 0.27611951662754886 -0.41684291110365396 0
          0.2523966794873836 -0.4316201063246972 0 -0.4947267925469715 -0.07242513884132935 0
          -0.1038034174056832 0.48910617511426036 0 -0.003156098741730414 -0.4999900389415098 0
          0.15523743588032476 -0.475290793621444 0 0.4643103439178852 -0.18551524069697112 0
          0.029799435769123674 -0.49911120366892375 0 0.0990725200174434 -0.4900863554287074 0
          -0.20097389281381026 -0.4578312947006387 0 -0.41017664674300075 -0.2859285198553435 0
          -0.38767722988584397 0.31576314767248964 0 0.2861465875180963 -0.4100245485964815 0
          0.4818433006386192 0.1335179150139832 0 0.24076156094408105 -0.4382166938533601 0
          0.16399761184321554 -0.47233969059324454 0 -0.018758717885581287 0.49964798658984827 0
          0.25494381422231516 -0.43012050821807796 0 -0.23306001614271812 -0.4423607451792665 0
          -0.49678576023550136 -0.05660307789541963 0 0.3980648885019921 -0.30256295963302676 0
          -0.367013511479765 0.3395601307446037 0 -0.4567481124820707 0.2034236017380129 0
          0.2373533284242974 0.4400720367007061 0 0.3227789050130209 0.3818557037397703 0
          0.4498611874379731 0.2182313268916652 0 -0.45642277187939423 0.2041525246229653 0
          -0.475615739320345 0.15423899802177662 0 -0.4796412521009884 -0.141224180942911 0
          0.25496626150323026 0.43010720232875244 0 0.4296253856323577 0.25577730161264883 0
          -0.4460509008331934 -0.22591722790857874 0 0.20472641449641923 0.4561656444839312 0
          0.03952079242536484 -0.4984356598058281 0 0.49947437404957074 -0.022920507581410156 0
          -0.4316081034313518 0.25241720435103376 0 0.359655186837372 0.3473444206849665 0
          0.49999961295030665 -0.0006221330593404245 0 -0.4051111686762605 -0.29306132637001836 0
          0.19709309745818954 0.4595153000002683 0 -0.44922982994578525 0.21952803895375386 0
          -0.33494046808737094 0.3712342694814325 0 0.37889702718003765 0.32624690465064926 0
          0.08464054405690605 -0.49278390629336805 0 0.09868196482418813 0.4901651454545067 0
          0.300025799646953 0.39998064896467983 0 0.05851924155537564 -0.4965636901423458 0
          <InformationKey name="L2_NORM_RANGE" location="vtkDataArray" length="2">
            <Value index="0">
              0.5
            </Value>
            <Value index="1">
              0.5
            </Value>
          </InformationKey>
        </DataArray>
        <DataArray type="Float64" Name="radius" format="ascii" RangeMin="1" RangeMax="1">
          1 1 1 1 1 1
          1 1 1 1 1 1
          1 1 1 1 1 1
          1 1 1 1 1 1
          1 1 1 1 1 1
          1 1 1 1 1 1
          1 1 1 1 1 1
          1 1 1 1 1 1
          1 1 1 1 1 1
          1 1 1 1 1 1
          1 1 1 1 1 1
          1 1 1 1 1 1
          1 1 1 1 1 1
          1 1 1 1 1 1
          1 1 1 1 1 1
          1 1 1 1 1 1
          1 1 1 1 1 1
          1 1 1 1 1 1
          1 1 1 1 1 1
          1 1 1 1 1 1
          1 1 1 1 1 1
          1 1 1 1 1 1
          1 1 1 1 1 1
          1 1 1 1 1 1
          1 1 1 1 1 1
          1 1 1 1
        </DataArray>
      </PointData>
      <CellData>
      </CellData>
      <Points>
        <DataArray type="Float32" Name="Points" NumberOfComponents="3" format="ascii" RangeMin="2.0414990891233975" RangeMax="67.84740821311955">
          -36.845977783203125 33.84636688232422 0 47.2084846496582 -27.73354721069336 0
          -19.07512092590332 4.738783836364746 0 -30.99521827697754 49.29168701171875 0
          49.41118240356445 46.49522399902344 0 22.781545639038086 48.39249038696289 0
          -38.95576095581055 29.689708709716797 0 -20.212099075317383 -49.6171760559082 0
          -38.249900817871094 13.672388076782227 0 37.70372772216797 0.2940966784954071 0
          29.796268463134766 -13.681392669677734 0 -28.647871017456055 18.10486602783203 0
          -10.21751594543457 23.956806182861328 0 -2.629833459854126 -7.816257476806641 0
          -32.52968215942383 -19.47844886779785 0 29.656217575073242 -18.736190795898438 0
          37.238136291503906 -35.37668991088867 0 49.439456939697266 32.048377990722656 0
          -37.413936614990234 26.140583038330078 0 -0.9350181221961975 15.856372833251953 0
          -37.565635681152344 -29.161806106567383 0 -45.01866912841797 -46.25053405761719 0
          -9.017390251159668 -4.006718158721924 0 -1.0860776901245117 29.61443328857422 0
          42.138057708740234 30.73116111755371 0 20.767215728759766 -49.49859619140625 0
          20.890552520751953 14.111443519592285 0 -4.614852428436279 27.348007202148438 0
          7.296412467956543 37.804203033447266 0 31.00339126586914 -47.849910736083984 0
          32.03558349609375 32.42399215698242 0 43.805904388427734 -8.756317138671875 0
          -7.970879554748535 7.956315994262695 0 -34.222869873046875 26.00457763671875 0
          -26.27268409729004 30.854106903076172 0 49.11539077758789 -17.03954315185547 0
          -20.263742446899414 -48.6386833190918 0 -28.680665969848633 40.5728645324707 0
          34.75154113769531 45.59336471557617 0 27.88589859008789 49.0750846862793 0
          -43.25542068481445 29.491724014282227 0 9.01479434967041 23.26534080505371 0
          19.283466339111328 18.039722442626953 0 -10.665745735168457 5.993753433227539 0
          -29.330595016479492 2.502413511276245 0 -9.531831741333008 -14.821366310119629 0
          9.78900146484375 -14.106072425842285 0 46.58990478515625 -34.56051254272461 0
          -10.620877265930176 -11.243799209594727 0 22.720739364624023 -11.299386978149414 0
          42.596195220947266 -5.981779098510742 0 35.469947814941406 11.762575149536133 0
          -37.63637161254883 -2.513369560241699 0 -16.001325607299805 2.9223945140838623 0
          21.577112197875977 48.7636604309082 0 21.858596801757812 41.39230728149414 0
          0.7133235931396484 5.928871154785156 0 0.3467121124267578 -3.8529770374298096 0
          4.505921840667725 -5.343028545379639 0 35.28402328491211 10.271524429321289 0
          0.09490059316158295 47.466773986816406 0 -46.86404037475586 47.78804397583008 0
          -13.615114212036133 17.780197143554688 0 -14.913864135742188 35.38371658325195 0
          -45.44288635253906 15.700703620910645 0 25.181119918823242 -36.653621673583984 0
          48.75785446166992 -40.211647033691406 0 -21.97382926940918 30.308809280395508 0
          -42.356956481933594 12.712044715881348 0 -49.54688262939453 18.146961212158203 0
          3.11077880859375 -6.108888626098633 0 -30.076663970947266 -36.122894287109375 0
          -11.455345153808594 26.59483528137207 0 -45.736610412597656 -24.77899742126465 0
          0.8099915981292725 32.682861328125 0 48.08243179321289 32.381900787353516 0
          -19.595722198486328 -44.516719818115234 0 -24.916942596435547 3.7855470180511475 0
          38.655494689941406 -15.629705429077148 0 -47.099124908447266 -33.69794845581055 0
          38.03902053833008 -29.162811279296875 0 -23.04422378540039 -0.8963975310325623 0
          -27.51409912109375 -0.6192077398300171 0 44.96909713745117 15.332501411437988 0
          25.83736228942871 -6.786233425140381 0 5.221322059631348 -44.38211441040039 0
          -17.4929256439209 -9.67545223236084 0 40.91722106933594 31.119319915771484 0
          -24.173664093017578 -36.54180908203125 0 -0.8971315026283264 -11.5986967086792 0
          21.61564826965332 -21.354700088500977 0 12.17860221862793 31.121538162231445 0
          -18.972436904907227 -12.175140380859375 0 -15.773228645324707 31.259918212890625 0
          16.938602447509766 -12.105927467346191 0 -4.3267598152160645 -19.7308349609375 0
          40.87886047363281 -1.1414101123809814 0 25.524450302124023 -38.9627571105957 0
          -10.728201866149902 37.135555267333984 0 -13.984046936035156 41.81669616699219 0
          4.912421226501465 -35.91486740112305 0 -30.02642059326172 45.37819290161133 0
          48.98333740234375 -26.195453643798828 0 -48.62004089355469 -11.096632957458496 0
          27.928863525390625 -2.369365692138672 0 3.8216586112976074 -48.34231185913086 0
          40.04911422729492 -30.202014923095703 0 38.703155517578125 -5.687950611114502 0
          -34.98719787597656 -25.983963012695312 0 29.878660202026367 -2.884176254272461 0
          -41.347999572753906 14.221182823181152 0 13.5924072265625 8.223352432250977 0
          22.824447631835938 -14.586675643920898 0 18.020252227783203 21.144245147705078 0
          -33.73390197753906 -36.83592987060547 0 -5.155152797698975 -46.006099700927734 0
          29.667463302612305 -33.09505081176758 0 33.46455764770508 -17.33730697631836 0
          15.633026123046875 -8.148758888244629 0 27.916284561157227 -38.84473419189453 0