<?xml version="1.0"?>
<VTKFile type="PolyData" version="0.1" byte_order="LittleEndian" header_type="UInt32" compressor="vtkZLibDataCompressor">
  <PolyData>
    <Piece NumberOfPoints="154" NumberOfVerts="0" NumberOfLines="0" NumberOfStrips="0" NumberOfPolys="0">
      <PointData>
        <DataArray type="Int32" Name="id" format="ascii" RangeMin="0" RangeMax="153">
          0 1 2 3 4 5
          6 7 8 9 10 11
          12 13 14 15 16 17
          18 19 20 21 22 23
          24 25 26 27 28 29
          30 31 32 33 34 35
          36 37 38 39 40 41
          42 43 44 45 46 47
          48 49 50 51 52 53
          54 55 56 57 58 59
          60 61 62 63 64 65
          66 67 68 69 70 71
          72 73 74 75 76 77
          78 79 80 81 82 83
          84 85 86 87 88 89
          90 91 92 93 94 95
          96 97 98 99 100 101
          102 103 104 105 106 107
          108 109 110 111 112 113
          114 115 116 117 118 119
          120 121 122 123 124 125
          126 127 128 129 130 131
          132 133 134 135 136 137
          138 139 140 141 142 143
          144 145 146 147 148 149
          150 151 152 153
        </DataArray>
        <DataArray type="Float64" Name="director" NumberOfComponents="3" format="ascii" RangeMin="0.9999999999999999" RangeMax="1">
          -0.9077675085201464 -0.4194736588572946 0 -0.3186573998874487 -0.9478699602250146 0
          -0.41004636174585146 -0.9120646803922353 0 -0.11553550866317103 0.9933033505621243 0
          -0.5737750821526361 0.819012915100083 0 0.8749200453072643 0.4842673996043246 0
          0.9987614018251296 0.049756027014845515 0 0.8307942585870742 0.5565796438055866 0
          0.9998599492848124 -0.01673564507787013 0 -0.6798456478559959 -0.7333552311746752 0
          -0.7294860005170467 0.6839957419820998 0 -0.9842784356338649 -0.17662378420289734 0
          0.001115618061557452 -0.9999993776979768 0 -0.4961217644923105 0.8682529555360214 0
          0.9386922537015405 0.3447562223379336 0 0.9761578593935208 0.21706181963730786 0
          -0.7620514480902046 -0.6475164789127935 0 -0.9987797244596197 0.0493868606854704 0
          0.9981395382479974 -0.060970994629205584 0 -0.9422965520993559 -0.3347793421071045 0
          0.8190277492758112 0.57375390710321 0 0.7566768001617705 -0.6537891250984097 0
          -0.7668584424107963 -0.6418162737912522 0 0.6641548336602556 0.7475950487568241 0
          -0.9332065447283969 -0.35934043033881746 0 -0.6170869007537119 0.7868950100986652 0
          0.8790120833043643 -0.47679949392267745 0 0.997472666042358 0.07105125261633734 0
          -0.9967495251904442 -0.08056291971263214 0 -0.28380032107521586 -0.9588834015445279 0
          0.47022228591248383 0.8825480167284034 0 -0.9949880651989759 -0.0999937503627032 0
          -0.9968487334921527 -0.07932592599579869 0 0.15496327136598173 0.9879202318646749 0
          0.9143586055739858 -0.404905347473698 0 -0.10346706965162086 0.9946328797590127 0
          0.6394382793363215 0.7688424330897745 0 -0.4234328766034477 -0.9059274799956835 0
          -0.9521561755232605 -0.3056118738087872 0 0.98430593976127 -0.17647044214452207 0
          -0.4037947542829877 0.9148496031663027 0 0.46712469478078167 -0.8841914495888102 0
          0.6085124123658271 -0.7935443554059984 0 -0.980849280313487 -0.19476829646663396 0
          0.019183917142403757 0.9998159717283344 0 -0.6734461055960101 0.7392363240923483 0
          0.812453894146457 -0.5830254453162895 0 -0.5895325086694548 0.8077446510017254 0
          -0.22574652727795705 -0.9741860733052708 0 -0.8822688652110293 0.4707458438257768 0
          0.5597456538485072 -0.8286644694915472 0 0.85491193613092 -0.5187731502891044 0
          0.9818463064011407 -0.1896782291314356 0 0.10766825244566575 0.9941868775111128 0
          -0.33624268849967237 0.9417753736589805 0 -0.996154613187305 0.08761270812873406 0
          -0.9668319006638765 -0.2554135389102857 0 0.5719281394098251 0.82030372628144 0
          -0.20549852368889523 -0.9786574256407012 0 0.8467506701535684 -0.5319899459524426 0
          -0.8485136277036646 -0.5291735288175013 0 -0.40818744404908247 -0.9128981380858858 0
          -0.8379801483717 -0.5457007155345718 0 0.7945515154863176 -0.6071967467290943 0
          0.8267741379273097 -0.5625340210641075 0 -0.9925899130557042 -0.12151240471684159 0
          0.9750239642902911 -0.22209968270946498 0 -0.972286064334113 -0.233794373545817 0
          -0.6936607006313704 0.7203019036484607 0 0.9851899880607944 0.1714662865544474 0
          -0.252781524570839 0.9675233851621584 0 -0.014207966595715814 0.9998990617483422 0
          -0.04018860767126744 0.9991921115648607 0 -0.03764572544869818 0.9992911484424553 0
          0.21287944730315583 -0.9770784722405376 0 -0.998541145128657 0.05399612472345088 0
          -0.9738734536360141 -0.22709138315458444 0 0.6651138122507384 -0.7467420014658942 0
          -0.3895020448389385 0.9210256006573788 0 0.30650284360669716 -0.951869742591395 0
          -0.7149728662362674 0.6991522012737258 0 0.8777504782826001 -0.4791180416918849 0
          -0.5603453411520574 -0.8282590770098355 0 -0.9672796712011008 -0.2537125099026262 0
          -0.9636648913627136 -0.26711416502104385 0 0.4245381460789587 0.905410052144243 0
          -0.9679785553932164 -0.25103289883770574 0 0.2595627575926035 -0.9657262421985453 0
          0.9991313868362484 -0.04167099517260271 0 -0.048008499668270706 0.9988469271913498 0
          -0.417219303317653 -0.9088058389662405 0 -0.8004718387213413 -0.5993703658123872 0
          -0.9822314035523825 -0.18767383908130802 0 0.22501961630820097 -0.9743542334677414 0
          0.35965279929273897 0.9330862039280705 0 0.9729568788964212 0.23098682171962695 0
          -0.9827508171831659 0.1849346677230088 0 0.9889367534029175 -0.14833778267487047 0
          -0.8897771283664156 -0.4563952912071016 0 0.826742876903514 -0.5625799636401043 0
          -0.684273167380399 0.7292257760139834 0 0.621882182959895 -0.7831108162431647 0
          -0.7100072549782116 -0.7041943608680099 0 0.9096076360988882 -0.4154683481934487 0
          -0.76810761916722 0.6403207675667445 0 -0.9557030448822721 0.29433261797285354 0
          0.8653408339631777 0.5011838395997142 0 0.5991989939610237 -0.8006001284262306 0
          0.5366428107470461 -0.8438095126706678 0 -0.9892053048622008 -0.14653622361887303 0
          -0.19278335144759368 0.9812413461552838 0 -0.09054034590129985 -0.995892788288013 0
          0.31533764840846046 -0.9489795400830422 0 0.9221801590635963 -0.3867605903261607 0
          0.04141200664036915 -0.9991421549039046 0 0.184293248914598 -0.9828713030730433 0
          -0.3975969517737784 -0.91756016911165 0 -0.791677816501196 -0.6109388143340532 0
          -0.7794757655935175 0.6264323833043753 0 0.5076099844860835 -0.8615869681291831 0
          0.9461974007542033 0.3235899856392183 0 0.48014328567917447 -0.8771900735970549 0
          0.38735987320597853 -0.9219285919364082 0 -0.12091282679971888 0.9926631293219775 0
          0.5282294160267607 -0.8491016924044066 0 -0.4545243560930254 -0.8907343092742194 0
          -0.9844419228354054 -0.17571027449790635 0 0.8554399994552617 -0.517901928295292 0
          -0.7599438923641132 0.6499886771771345 0 -0.9370555111112895 0.34918042484646816 0
          0.530212597077925 0.8478647308974951 0 0.6513052997788888 0.7588157921919731 0
          0.8794707041385763 0.47595302348235663 0 -0.915996300204208 0.40118671215807045 0
          -0.9424001894709358 0.3344874928680357 0 -0.9750733754073792 -0.22188265495901283 0
          0.5411112182967781 0.8409510386659717 0 0.86254936486658 0.5059729174256854 0
          -0.8892072989267434 -0.45750451313118784 0 0.39338503271057507 0.9193738173557586 0
          0.03466999522622753 -0.9993988150038069 0 0.999891323805429 -0.01474247532223703 0
          -0.8943067478006655 0.44745440084794874 0 0.7190601595121096 0.6949478304178088 0
          0.9998937604899779 0.014576272953354022 0 -0.8119726704869834 -0.583695453453457 0
          0.3844274465737872 0.9231552081425733 0 -0.8847096049973451 0.4661425906580964 0
          -0.615735271563994 0.7879530921013094 0 0.7534259398190384 0.6575327772877932 0
          0.13135989890835986 -0.99133474515866 0 0.15947087946881747 0.9872026329996502 0
          0.6393459302147767 0.7689192295149094 0 0.11314507989574202 -0.9935784774719036 0
          <InformationKey name="L2_NORM_RANGE" location="vtkDataArray" length="2">
            <Value index="0">
              1
            </Value>
            <Value index="1">
              1
            </Value>
          </InformationKey>
        </DataArray>
        <DataArray type="Float64" Name="velocity" NumberOfComponents="3" format="ascii" RangeMin="2.98391528750295" RangeMax="65.61664053985334">
          20.472372037415383 -30.489259884928693 0 -7.778161120144524 43.605506408926914 0
          -35.778279556590725 14.318100471258902 0 -2.7267860528004704 -6.306708942777526 0
          -25.56803597993237 0.5919415230237348 0 40.69440930810454 -42.34960265147567 0
          21.390392053252754 11.720491675449018 0 -31.091580543867785 -10.301819378431787 0
          -22.233594277397 35.80993014386058 0 40.8936574712134 11.727908496204755 0
          -31.918129728714472 1.502371966558826 0 32.46317064138093 -14.067556233339687 0
          31.61170207931397 -20.66117562390716 0 -32.788218903188394 -0.7210412736466054 0
          -30.467523066969363 36.43074923190564 0 -29.58028331655805 11.627227611362315 0
          37.80505508071815 -10.753091333426255 0 44.65772551607054 -33.330173144632525 0
          47.18774005931614 6.396489460552942 0 9.836891189866492 -36.87781496106794 0
          6.677739541459459 5.438027088135769 0 -18.951003944933063 -37.93510690561732 0
          23.77908201111339 -25.727634747998636 0 32.285914726045576 -31.45240287607238 0
          -18.732306147503376 38.172541468590836 0 17.42129460906331 23.929755673071398 0
          -43.74567596165927 -36.843843838172035 0 -41.00470913383489 -49.1685554695042 0
          -4.3489588147394045 13.430332075080756 0 2.9762992276979077 -0.21305715242312573 0
          -16.420210149222868 -24.717665071237764 0 -26.63245586108499 -32.68369682188443 0
          9.59810303037343 22.68931438280859 0 37.757309281314306 20.71597266757422 0
          -26.523439665569285 -2.200425364398683 0 -48.17882370239545 24.733119867345934 0
          15.472358145094617 -42.19330576503555 0 -2.7230899171649696 49.647506705142575 0
          3.209752212846098 39.943600631846664 0 27.290092728339346 -29.624030405099575 0
          40.710862227344634 -12.518743865476708 0 34.808888796398136 -17.330075407408792 0
          -17.326333983387784 15.921061981020685 0 8.676498234140595 -45.101679767889145 0
          26.99656655139428 -0.8247828969564566 0 -1.181598492863479 -7.087342925864128 0
          -10.527228461045638 27.645380145270124 0 47.47543864880045 24.850515939083976 0
          13.45020038299144 -42.781974126121774 0 13.33632968921519 2.89206325620421 0
          -20.383234879262602 -17.467213088655853 0 13.111992425538233 49.45054225750374 0
          1.6047826830209004 22.445391370448775 0 -25.442525168919026 -16.766088433362327 0
          24.860911549332883 18.296648546241826 0 18.127137052491975 -42.11576276898946 0
          -4.106371249565804 19.81468592825003 0 -43.2115168522386 -43.085994704941484 0
          2.7042817825837204 -23.795120132132308 0 -1.6624837545658195 -36.91945356486498 0
          -40.55592314206473 -37.96183180819797 0 46.98372058379586 25.62816454897687 0
          -23.182362140209666 22.4905983535036 0 -8.42374893276238 -2.5281598168396826 0
          -44.45585735866184 11.374414308737222 0 -0.9380815156004232 40.44748670579848 0
          43.5214270198436 41.82766196839604 0 -19.617472876146607 29.010177679462174 0
          -27.377259211045168 -5.104813753149479 0 1.0108912986547693 -26.93680745999526 0
          21.18807799653547 48.4452609761332 0 15.521324819791857 -22.733301715898534 0
          -3.0984436752635744 -49.699879474370995 0 -5.357606698271908 47.09441502974741 0
          -19.533649987483585 -28.48909553641595 0 -25.241492794096537 30.645102659141713 0
          -1.3628901407151872 -9.249808436218693 0 -28.437070584076316 4.0252086974848424 0
          22.302423751473526 -21.630608392707323 0 4.286209731170565 25.592468486596516 0
          -16.80227135673981 30.176297340482108 0 35.70724318896097 -48.51082997011254 0
          38.494266527440914 9.308694076898924 0 -41.37827709570729 42.48759424258512 0
          41.371957205314274 48.07567751376408 0 40.00221093710812 44.971458396046486 0
          43.45219546574209 -49.16757290067578 0 27.77940311086799 -47.40411222574361 0
          8.787704962513757 14.978077069606684 0 -17.176354508003442 -38.89206379839693 0
          -37.572734230027905 47.39150589914381 0 3.322947059262674 16.230028184641725 0
          20.82576325094061 -43.12614201683975 0 -29.404442159877867 -6.6570323329381935 0
          -48.88074135310182 -43.07374742736768 0 -15.693819004659524 -18.776991949103287 0
          49.2742614956165 -23.093566379026992 0 35.70662412955289 -14.438908494432013 0
          24.676827977366614 34.48562696853686 0 -28.28613766609157 46.49521791482232 0
          21.219265309149932 48.266786794162286 0 25.989900495501132 -30.673962513745963 0
          -14.741048879365302 -30.369965831724773 0 33.206792723445574 45.25947670903301 0
          26.73700517552618 36.1968809297727 0 -4.433626259916984 -16.731616061562868 0
          33.82599634129042 5.430878965379037 0 -37.91344272052366 -28.781627030961573 0
          -0.8760744559602713 -9.034520229977083 0 25.951148963832622 -14.29357740625877 0
          27.17860558051683 48.15404052238152 0 34.61617221348607 33.462162550860555 0
          -13.28055184508198 -44.93740558320786 0 47.55616001461492 34.25892934866374 0
          36.946038841117556 -42.45015674570037 0 -46.76239316488481 11.393180618063838 0
          23.568028568935404 11.552780427737098 0 16.263007945057282 45.12644264060411 0
          -23.411248530157515 41.93857265065735 0 -38.160345232049345 -18.69342940760771 0
          37.21153998486223 -26.635630373860984 0 30.80584946405935 5.653176675427417 0
          44.35923105765637 0.370346282237378 0 16.64168251311186 -34.7034267378138 0
          47.322877480901255 13.376690736606477 0 -32.1350217035443 -42.58571958176201 0
          -0.5025219679409361 28.59799073613067 0 -3.5320261053794297 38.30316610148137 0
          14.736889949280638 40.32409694969634 0 -49.402638529229115 19.356180838194604 0
          8.508964450503598 -39.46387075781778 0 49.03198966734128 -27.000797471280585 0
          -16.70921662991016 18.938285128010065 0 46.14207459237997 -27.3400906744995 0
          42.424140585792586 37.62461911345025 0 -6.825547086494495 -2.911259141055119 0
          6.210247997996007 33.76154121673389 0 -35.16911208657487 13.927818279591207 0
          49.5593687100304 13.93941034113417 0 -6.0481675260535965 -47.161165000275155 0
          -41.68490984500472 3.0367185203014984 0 28.200151364646487 23.664522522360798 0
          -30.983903256438072 -23.817273645282434 0 -4.775523168997552 -3.9973115200368454 0
          17.36371431475763 -32.304692769073746 0 -31.21691646176371 -40.35131875297581 0
          -17.61253928181918 -32.96735050248542 0 -47.52659271635095 33.064298464373394 0
          -25.51716157275273 -35.79649925661745 0 -34.4558032257712 -19.698927528483058 0
          -46.64276824331557 -9.071061809886274 0 28.312364537561464 -5.662808823633235 0
          -48.25117889494449 -21.421563451189467 0 45.139670111270334 -32.86849758057289 0
          <InformationKey name="L2_NORM_RANGE" location="vtkDataArray" length="2">
            <Value index="0">
              2.9839152875
            </Value>
            <Value index="1">
              65.61664054
            </Value>
          </InformationKey>
        </DataArray>
        <DataArray type="Float64" Name="force" NumberOfComponents="3" format="ascii" RangeMin="0.49999999999999994" RangeMax="0.5">
          -0.4538837542600732 -0.2097368294286473 0 -0.15932869994372434 -0.4739349801125073 0
          -0.20502318087292573 -0.45603234019611766 0 -0.057767754331585514 0.49665167528106213 0
          -0.28688754107631803 0.4095064575500415 0 0.43746002265363215 0.2421336998021623 0
          0.4993807009125648 0.024878013507422757 0 0.4153971292935371 0.2782898219027933 0
          0.4999299746424062 -0.008367822538935065 0 -0.33992282392799794 -0.3666776155873376 0
          -0.36474300025852335 0.3419978709910499 0 -0.49213921781693243 -0.08831189210144867 0
          0.000557809030778726 -0.4999996888489884 0 -0.24806088224615525 0.4341264777680107 0
          0.46934612685077026 0.1723781111689668 0 0.4880789296967604 0.10853090981865393 0
          -0.3810257240451023 -0.32375823945639676 0 -0.49938986222980986 0.0246934303427352 0
          0.4990697691239987 -0.030485497314602792 0 -0.47114827604967796 -0.16738967105355226 0
          0.4095138746379056 0.286876953551605 0 0.37833840008088526 -0.32689456254920485 0
          -0.38342922120539813 -0.3209081368956261 0 0.3320774168301278 0.37379752437841207 0
          -0.46660327236419846 -0.17967021516940873 0 -0.30854345037685593 0.3934475050493326 0
          0.43950604165218216 -0.23839974696133873 0 0.498736333021179 0.03552562630816867 0
          -0.4983747625952221 -0.04028145985631607 0 -0.14190016053760793 -0.47944170077226395 0
          0.23511114295624191 0.4412740083642017 0 -0.49749403259948793 -0.0499968751813516 0
          -0.4984243667460764 -0.03966296299789934 0 0.07748163568299087 0.49396011593233746 0
          0.4571793027869929 -0.202452673736849 0 -0.05173353482581043 0.49731643987950636 0
          0.31971913966816073 0.38442121654488726 0 -0.21171643830172385 -0.45296373999784173 0
          -0.47607808776163024 -0.1528059369043936 0 0.492152969880635 -0.08823522107226103 0
          -0.20189737714149386 0.45742480158315135 0 0.23356234739039083 -0.4420957247944051 0
          0.30425620618291355 -0.3967721777029992 0 -0.4904246401567435 -0.09738414823331698 0
          0.009591958571201879 0.4999079858641672 0 -0.3367230527980051 0.36961816204617415 0
          0.4062269470732285 -0.29151272265814476 0 -0.2947662543347274 0.4038723255008627 0
          -0.11287326363897852 -0.4870930366526354 0 -0.44113443260551466 0.2353729219128884 0
          0.2798728269242536 -0.4143322347457736 0 0.42745596806546 -0.2593865751445522 0
          0.49092315320057034 -0.0948391145657178 0 0.05383412622283287 0.4970934387555564 0
          -0.16812134424983619 0.4708876868294902 0 -0.4980773065936525 0.04380635406436703 0
          -0.48341595033193824 -0.12770676945514284 0 0.28596406970491256 0.41015186314072 0
          -0.10274926184444762 -0.4893287128203506 0 0.4233753350767842 -0.2659949729762213 0
          -0.4242568138518323 -0.2645867644087507 0 -0.20409372202454124 -0.4564490690429429 0
          -0.41899007418585 -0.2728503577672859 0 0.3972757577431588 -0.30359837336454715 0
          0.41338706896365485 -0.2812670105320538 0 -0.4962949565278521 -0.060756202358420795 0
          0.4875119821451456 -0.11104984135473249 0 -0.4861430321670565 -0.1168971867729085 0
          -0.3468303503156852 0.36015095182423035 0 0.4925949940303972 0.0857331432772237 0
          -0.1263907622854195 0.4837616925810792 0 -0.007103983297857907 0.4999495308741711 0
          -0.02009430383563372 0.4995960557824303 0 -0.01882286272434909 0.49964557422122763 0
          0.10643972365157792 -0.4885392361202688 0 -0.4992705725643285 0.02699806236172544 0
          -0.48693672681800704 -0.11354569157729222 0 0.3325569061253692 -0.3733710007329471 0
          -0.19475102241946926 0.4605128003286894 0 0.15325142180334858 -0.4759348712956975 0
          -0.3574864331181337 0.3495761006368629 0 0.43887523914130006 -0.23955902084594244 0
          -0.2801726705760287 -0.41412953850491774 0 -0.4836398356005504 -0.1268562549513131 0
          -0.4818324456813568 -0.13355708251052192 0 0.21226907303947934 0.4527050260721215 0
          -0.4839892776966082 -0.12551644941885287 0 0.12978137879630175 -0.48286312109927265 0
          0.4995656934181242 -0.020835497586301356 0 -0.024004249834135353 0.4994234635956749 0
          -0.2086096516588265 -0.4544029194831202 0 -0.40023591936067066 -0.2996851829061936 0
          -0.49111570177619124 -0.09383691954065401 0 0.11250980815410049 -0.4871771167338707 0
          0.17982639964636948 0.46654310196403526 0 0.4864784394482106 0.11549341085981348 0
          -0.49137540859158296 0.0924673338615044 0 0.49446837670145877 -0.07416889133743523 0
          -0.4448885641832078 -0.2281976456035508 0 0.413371438451757 -0.28128998182005216 0
          -0.3421365836901995 0.3646128880069917 0 0.3109410914799475 -0.39155540812158235 0
          -0.3550036274891058 -0.35209718043400495 0 0.4548038180494441 -0.20773417409672434 0
          -0.38405380958361 0.32016038378337225 0 -0.47785152244113605 0.14716630898642677 0
          0.43267041698158887 0.2505919197998571 0 0.29959949698051186 -0.4003000642131153 0
          0.26832140537352306 -0.4219047563353339 0 -0.4946026524311004 -0.07326811180943651 0
          -0.09639167572379684 0.4906206730776419 0 -0.045270172950649924 -0.4979463941440065 0
          0.15766882420423023 -0.4744897700415211 0 0.46109007953179815 -0.19338029516308036 0
          0.020706003320184574 -0.4995710774519523 0 0.092146624457299 -0.49143565153652163 0
          -0.1987984758868892 -0.458780084555825 0 -0.395838908250598 -0.3054694071670266 0
          -0.38973788279675875 0.31321619165218767 0 0.25380499224304176 -0.43079348406459156 0
          0.47309870037710167 0.16179499281960916 0 0.24007164283958723 -0.43859503679852746 0
          0.19367993660298927 -0.4609642959682041 0 -0.06045641339985944 0.49633156466098877 0
          0.26411470801338033 -0.4245508462022033 0 -0.2272621780465127 -0.4453671546371097 0
          -0.4922209614177027 -0.08785513724895318 0 0.42771999972763086 -0.258950964147646 0
          -0.3799719461820566 0.32499433858856724 0 -0.46852775555564474 0.17459021242323408 0
          0.2651062985389625 0.4239323654487476 0 0.3256526498894444 0.3794078960959866 0
          0.43973535206928815 0.23797651174117831 0 -0.457998150102104 0.20059335607903522 0
          -0.4712000947354679 0.16724374643401785 0 -0.4875366877036896 -0.11094132747950641 0
          0.27055560914838905 0.4204755193329858 0 0.43127468243329 0.2529864587128427 0
          -0.4446036494633717 -0.22875225656559392 0 0.19669251635528753 0.4596869086778793 0
          0.017334997613113766 -0.49969940750190345 0 0.4999456619027145 -0.007371237661118515 0
          -0.4471533739003328 0.22372720042397437 0 0.3595300797560548 0.3474739152089044 0
          0.49994688024498896 0.007288136476677011 0 -0.4059863352434917 -0.2918477267267285 0
          0.1922137232868936 0.4615776040712867 0 -0.44235480249867254 0.2330712953290482 0
          -0.307867635781997 0.3939765460506547 0 0.3767129699095192 0.3287663886438966 0
          0.06567994945417993 -0.49566737257933 0 0.07973543973440873 0.4936013164998251 0
          0.31967296510738835 0.3844596147574547 0 0.05657253994787101 -0.4967892387359518 0
          <InformationKey name="L2_NORM_RANGE" location="vtkDataArray" length="2">
            <Value index="0">
              0.5
            </Value>
            <Value index="1">
              0.5
            </Value>
          </InformationKey>
        </DataArray>
        <DataArray type="Float64" Name="radius" format="ascii" RangeMin="1" RangeMax="1">
          1 1 1 1 1 1
          1 1 1 1 1 1
          1 1 1 1 1 1
          1 1 1 1 1 1
          1 1 1 1 1 1
          1 1 1 1 1 1
          1 1 1 1 1 1
          1 1 1 1 1 1
          1 1 1 1 1 1
          1 1 1 1 1 1
          1 1 1 1 1 1
          1 1 1 1 1 1
          1 1 1 1 1 1
          1 1 1 1 1 1
          1 1 1 1 1 1
          1 1 1 1 1 1
          1 1 1 1 1 1
          1 1 1 1 1 1
          1 1 1 1 1 1
          1 1 1 1 1 1
          1 1 1 1 1 1
          1 1 1 1 1 1
          1 1 1 1 1 1
          1 1 1 1 1 1
          1 1 1 1 1 1
          1 1 1 1
        </DataArray>
      </PointData>
      <CellData>
      </CellData>
      <Points>
        <DataArray type="Float32" Name="Points" NumberOfComponents="3" format="ascii" RangeMin="2.0817856414711833" RangeMax="67.82306097603237">
          -36.79544448852539 33.86084747314453 0 47.186988830566406 -27.76911163330078 0
          -19.142833709716797 4.661355495452881 0 -31.032732009887695 49.349151611328125 0
          49.40302658081055 46.468360900878906 0 22.71188735961914 48.42626953125 0
          -38.98277282714844 29.652822494506836 0 -20.202972412109375 -49.659828186035156 0
          -38.26123809814453 13.662237167358398 0 37.62943649291992 0.2586630582809448 0
          29.769472122192383 -13.612142562866211 0 -28.677413940429688 18.08448600769043 0
          -10.344001770019531 23.989673614501953 0 -2.6195037364959717 -7.8043413162231445 0
          -32.60935974121094 -19.48890495300293 0 29.702463150024414 -18.804431915283203 0
          37.26710891723633 -35.39003372192383 0 49.40705490112305 32.02674102783203 0
          -37.462669372558594 26.146425247192383 0 -1.0154293775558472 15.835102081298828 0
          -37.57474136352539 -29.1806640625 0 -45.003700256347656 -46.228485107421875 0
          -9.078906059265137 -4.026858329772949 0 -1.0042970180511475 29.599143981933594 0
          42.190162658691406 30.731422424316406 0 20.83661460876465 -49.45963668823242 0
          20.916181564331055 14.127900123596191 0 -4.58580207824707 27.330171585083008 0
          7.297364711761475 37.85106658935547 0 30.981647491455078 -47.80185317993164 0
          32.06428527832031 32.39352798461914 0 43.78681564331055 -8.7092866897583 0
          -7.993837356567383 7.92489767074585 0 -34.205909729003906 26.07346534729004 0
          -26.3021183013916 30.86980438232422 0 49.12639617919922 -17.04424476623535 0
          -20.368938446044922 -48.64165496826172 0 -28.648897171020508 40.61060333251953 0
          34.814064025878906 45.64409255981445 0 27.872203826904297 49.097450256347656 0
          -43.26655197143555 29.582685470581055 0 8.987674713134766 23.224159240722656 0
          19.284080505371094 18.073062896728516 0 -10.66246223449707 5.958357810974121 0
          -29.265262603759766 2.452479839324951 0 -9.57024097442627 -14.86744499206543 0
          9.809453010559082 -14.154995918273926 0 46.54811096191406 -34.51726531982422 0
          -10.6268949508667 -11.26075267791748 0 22.727523803710938 -11.311179161071777 0
          42.635719299316406 -5.996860027313232 0 35.53955078125 11.739872932434082 0
          -37.58340835571289 -2.4680445194244385 0 -15.94793701171875 2.9037535190582275 0
          21.567407608032227 48.78942108154297 0 21.850072860717773 41.417293548583984 0
          0.7405588626861572 5.872429370880127 0 0.3451766073703766 -3.854557991027832 0
          4.548140525817871 -5.37477445602417 0 35.3147087097168 10.286031723022461 0
          0.07709541916847229 47.422061920166016 0 -46.87014389038086 47.89126205444336 0
          -13.635616302490234 17.82986831665039 0 -14.785812377929688 35.39339828491211 0
          -45.433433532714844 15.72143840789795 0 25.110624313354492 -36.625972747802734 0
          48.736915588378906 -40.195796966552734 0 -21.981639862060547 30.287860870361328 0
          -42.32924270629883 12.743569374084473 0 -49.55099868774414 18.115989685058594 0
          3.204423427581787 -6.107425689697266 0 -30.031845092773438 -36.152076721191406 0
          -11.496200561523438 26.6468563079834 0 -45.740577697753906 -24.79691505432129 0
          0.8233278393745422 32.75932312011719 0 48.0966911315918 32.451934814453125 0
          -19.597946166992188 -44.51939010620117 0 -24.992469787597656 3.772063970565796 0
          38.66565704345703 -15.591780662536621 0 -47.10244369506836 -33.69108963012695 0
          38.070762634277344 -29.149845123291016 0 -23.09963035583496 -0.8767887949943542 0
          -27.523651123046875 -0.5909845232963562 0 44.97202682495117 15.3228178024292 0
          25.888248443603516 -6.852346897125244 0 5.189183712005615 -44.42066192626953 0
          -17.511070251464844 -9.682673454284668 0 40.87379455566406 31.133838653564453 0
          -24.16934585571289 -36.59516906738281 0 -0.932928740978241 -11.633831977844238 0
          21.59841537475586 -21.361421585083008 0 12.183674812316895 31.159385681152344 0
          -18.984437942504883 -12.228320121765137 0 -15.726198196411133 31.247234344482422 0
          16.97686004638672 -12.08220100402832 0 -4.29265022277832 -19.77533721923828 0
          40.90516662597656 -1.2378586530685425 0 25.50017738342285 -38.9844856262207 0
          -10.658827781677246 37.06117630004883 0 -13.944141387939453 41.779457092285156 0
          4.926769733428955 -35.89857864379883 0 -30.053861618041992 45.34033966064453 0
          49.049278259277344 -26.177824020385742 0 -48.66667556762695 -11.041186332702637 0
          27.93586540222168 -2.4032480716705322 0 3.8517138957977295 -48.34212875366211 0
          39.98552703857422 -30.204797744750977 0 38.70743942260742 -5.710126876831055 0
          -35.02432632446289 -25.962615966796875 0 29.885709762573242 -2.876561164855957 0
          -41.360504150390625 14.241693496704102 0 13.59239387512207 8.246295928955078 0
          22.81341552734375 -14.640263557434082 0 18.061674118041992 21.117164611816406 0
          -33.74922561645508 -36.76388931274414 0 -5.1646809577941895 -45.992767333984375 0
          29.748449325561523 -33.172691345214844 0 33.46522521972656 -17.335704803466797 0
          15.554767608642578 -8.153067588806152 0 27.98855972290039 -38.83271408081055 0