<?xml version="1.0"?>
<VTKFile type="PolyData" version="0.1" byte_order="LittleEndian" header_type="UInt32" compressor="vtkZLibDataCompressor">
  <PolyData>
    <Piece NumberOfPoints="154" NumberOfVerts="0" NumberOfLines="0" NumberOfStrips="0" NumberOfPolys="0">
      <PointData>
        <DataArray type="Int32" Name="id" format="ascii" RangeMin="0" RangeMax="153">
          0 1 2 3 4 5
          6 7 8 9 10 11
          12 13 14 15 16 17
          18 19 20 21 22 23
          24 25 26 27 28 29
          30 31 32 33 34 35
          36 37 38 39 40 41
          42 43 44 45 46 47
          48 49 50 51 52 53
          54 55 56 57 58 59
          60 61 62 63 64 65
          66 67 68 69 70 71
          72 73 74 75 76 77
          78 79 80 81 82 83
          84 85 86 87 88 89
          90 91 92 93 94 95
          96 97 98 99 100 101
          102 103 104 105 106 107
          108 109 110 111 112 113
          114 115 116 117 118 119
          120 121 122 123 124 125
          126 127 128 129 130 131
          132 133 134 135 136 137
          138 139 140 141 142 143
          144 145 146 147 148 149
          150 151 152 153
        </DataArray>
        <DataArray type="Float64" Name="director" NumberOfComponents="3" format="ascii" RangeMin="0.9999999999999999" RangeMax="1">
          -0.9459848298034239 -0.32421089090557553 0 -0.2282507061131944 -0.9736023906907934 0
          -0.4659199312414251 -0.8848268857081513 0 -0.09249532034759796 0.9957131191833295 0
          -0.5949501213683716 0.8037626223480163 0 0.8859478596003291 0.4637848532127754 0
          0.992316134400778 0.12372828863237754 0 0.8597042942079789 0.5107920580043909 0
          0.9969904924170243 -0.07752391908346323 0 -0.5873518786860562 -0.8093316814532595 0
          -0.7831224042943006 0.6218675903215363 0 -0.9935642351580878 -0.11327007819686585 0
          0.008962160047318103 -0.9999598390371917 0 -0.4139363091127087 0.9103058453059324 0
          0.9501289636698751 0.3118572628553151 0 0.9883154440202944 0.15242238389084575 0
          -0.7744213995379586 -0.6326701320100937 0 -0.9999999142504691 0.0004141244433187809 0
          0.9837463406006676 -0.17956374175984208 0 -0.9225858184142972 -0.38579192275217655 0
          0.833244262922721 0.5529050536090001 0 0.7492104787565671 -0.6623319851263078 0
          -0.7739517054927788 -0.6332446269529801 0 0.6898451844997496 0.7239569195901827 0
          -0.9232128634067335 -0.384288965285682 0 -0.5668794323016071 0.8238007703525213 0
          0.8230493768550551 -0.567969826010595 0 0.9998813507938666 0.015404036309763398 0
          -0.9981027450670013 -0.06157036860143589 0 -0.30659464316819685 -0.9518401781709817 0
          0.43034304751213415 0.9026654205506983 0 -0.9994804148425259 -0.032231977075761226 0
          -0.9952183428026888 -0.09767522791921025 0 0.19665257309052517 0.9804732354821705 0
          0.8871523176331647 -0.461476722401146 0 -0.0385221454702188 0.9992577466841932 0
          0.6225928774177147 0.7825459149396478 0 -0.5595610316358934 -0.8287891480193106 0
          -0.9565016302482867 -0.2917269808097457 0 0.9942810455666632 -0.1067951423373883 0
          -0.4637105004586832 0.8859867785494079 0 0.4951438465800257 -0.86881101005566 0
          0.6530349425189679 -0.7573277783425406 0 -0.984404535317418 -0.17591961472927983 0
          0.04889564326288964 0.9988038926986159 0 -0.6656777054323544 0.7462393667519261 0
          0.7984776007800476 -0.6020245186473213 0 -0.6639210120389966 0.7478027077866959 0
          -0.159848811472984 -0.9871415083313407 0 -0.8530249900118041 0.5218700666021778 0
          0.5923532734142771 -0.8056783474038449 0 0.799399610826709 -0.6007996855942138 0
          0.9748903235006925 -0.22268555665941864 0 0.14436911153857807 0.9895239055392051 0
          -0.3615174175833527 0.9323653558470862 0 -0.9893751233614112 0.14538523058960395 0
          -0.9150963321436789 -0.4032352947066832 0 0.4208324675233558 0.9071383765877198 0
          -0.1832602105212868 -0.9830644410412237 0 0.853214764117346 -0.5215597437419626 0
          -0.8099713976334926 -0.5864693811407776 0 -0.39863772115605073 -0.9171084817356727 0
          -0.8890596616773369 -0.45779134764451296 0 0.7621309221168341 -0.6474229356095937 0
          0.7350488786340553 -0.6780141193358865 0 -0.9992486438778697 -0.038757550338460185 0
          0.9887017053364655 -0.14989642378911178 0 -0.9774998226320648 -0.21093623859897048 0
          -0.6235075749747044 0.78181730855051 0 0.9998522063863061 0.01719201513597197 0
          -0.2023162096803696 0.9793202496122342 0 -0.11048768537932026 0.9938774931446633 0
          0.04439529115790852 0.9990140430059051 0 -0.015051219015377723 0.999886723987348 0
          0.21398028094930346 -0.9768379800994929 0 -0.9992265246148254 0.0393236888678788 0
          -0.9828807719830315 -0.1842427422343688 0 0.588872854408692 -0.8082256871323501 0
          -0.3091926894657057 0.9509994115565812 0 0.31985988542601357 -0.9474648561795089 0
          -0.7040692043418267 0.7101313649582498 0 0.9045446526962359 -0.4263789057618189 0
          -0.6109031561548826 -0.7917053326838231 0 -0.9834210673104066 -0.18133671544963167 0
          -0.9550689839449317 -0.2963835958793871 0 0.367036425197827 0.9302065698424195 0
          -0.9754062282410957 -0.22041481326916187 0 0.26579737285630595 -0.9640289189555912 0
          0.9955939706020966 -0.09376910845663178 0 0.05787887210716605 0.9983236129450221 0
          -0.4595949424180661 -0.8881286443436753 0 -0.7945811888377652 -0.607157915492472 0
          -0.9862279919108761 -0.16539149909061548 0 0.3437283277141154 -0.9390691330923713 0
          0.5135135133601465 0.8580815063830001 0 0.9731635483403253 0.23011455447595533 0
          -0.9794586348473343 0.20164518993270378 0 0.984484921549822 -0.17546919741379305 0
          -0.9468622543445345 -0.3216393497344284 0 0.869923932669664 -0.49318591967791003 0
          -0.7153546270962621 0.6987615884491418 0 0.7170227747514254 -0.6970497403254424 0
          -0.7579943064394675 -0.652261168095534 0 0.9312302299754178 -0.36443141848629124 0
          -0.7513054649303429 0.6599546184138735 0 -0.9245452886348514 0.38107218379606145 0
          0.8473059495522294 0.5311051005718125 0 0.6225543994338631 -0.7825765264468019 0
          0.4410937101983639 -0.8974610514242063 0 -0.9799461656786704 -0.19926242087175328 0
          -0.19732091995207338 0.9803389488076394 0 -0.045852410290692806 -0.998948225120068 0
          0.3183835191849596 -0.9479619901195409 0 0.9208133894527037 -0.390003463836699 0
          0.1337764876673695 -0.991011529371572 0 0.10454300075437443 -0.9945203673094236 0
          -0.4576240392704561 -0.8891457915785195 0 -0.8285504474338556 -0.5599144185115772 0
          -0.7224025422895342 0.6914727520977366 0 0.5185520280458952 -0.8550460772434952 0
          0.9627207918780998 0.27049709219436086 0 0.3707715136576793 -0.9287241165491469 0
          0.5476493393873632 -0.8367079544671395 0 -0.14108513093002753 0.989997467587901 0
          0.5786134749555726 -0.8156018922242867 0 -0.41602119358941314 -0.9093549177765742 0
          -0.999877602103825 -0.015645472543358768 0 0.8451766723695815 -0.5344870367766473 0
          -0.7613496034606978 0.6483415622264536 0 -0.953049174739559 0.30281557180608415 0
          0.5986934321067764 0.8009782608487004 0 0.7105915269797094 0.703604776692601 0
          0.8789405684499064 0.4769313128040089 0 -0.898855804569585 0.4382445009256408 0
          -0.9080754899894586 0.41880652392292617 0 -0.9633199597017724 -0.26835546433820845 0
          0.607224475497075 0.7945303243786873 0 0.8532958400444864 0.5214270892107297 0
          -0.8969502438804792 -0.44213149627995163 0 0.2732638987131327 0.9619391049646016 0
          -0.04056467709133438 -0.9991769147515748 0 0.9992826013740564 0.03787192351991981 0
          -0.9342198783847279 0.35669765745071047 0 0.7331172076862135 0.6801023156807873 0
          0.9999799000552723 0.006340306415915866 0 -0.8295966412252717 -0.5583631550055466 0
          0.4571357797149089 0.8893969186501842 0 -0.9202315445955317 0.3913743787364241 0
          -0.6010544273671306 0.7992080926406907 0 0.6621378781808243 0.7493820322627144 0
          0.10569416409888022 -0.9943986844698856 0 0.14955301357879763 0.9887537085288226 0
          0.5958577231456739 0.8030900159805583 0 0.06206902614967906 -0.9980718591328134 0
          <InformationKey name="L2_NORM_RANGE" location="vtkDataArray" length="2">
            <Value index="0">
              1
            </Value>
            <Value index="1">
              1
            </Value>
          </InformationKey>
        </DataArray>
        <DataArray type="Float64" Name="velocity" NumberOfComponents="3" format="ascii" RangeMin="2.98391528750295" RangeMax="65.61664053985334">
          20.472372037415383 -30.489259884928693 0 -7.778161120144524 43.605506408926914 0
          -35.778279556590725 14.318100471258902 0 -2.7267860528004704 -6.306708942777526 0
          -25.56803597993237 0.5919415230237348 0 40.69440930810454 -42.34960265147567 0
          21.390392053252754 11.720491675449018 0 -31.091580543867785 -10.301819378431787 0
          -22.233594277397 35.80993014386058 0 40.8936574712134 11.727908496204755 0
          -31.918129728714472 1.502371966558826 0 32.46317064138093 -14.067556233339687 0
          31.61170207931397 -20.66117562390716 0 -32.788218903188394 -0.7210412736466054 0
          -30.467523066969363 36.43074923190564 0 -29.58028331655805 11.627227611362315 0
          37.80505508071815 -10.753091333426255 0 44.65772551607054 -33.330173144632525 0
          47.18774005931614 6.396489460552942 0 9.836891189866492 -36.87781496106794 0
          6.677739541459459 5.438027088135769 0 -18.951003944933063 -37.93510690561732 0
          23.77908201111339 -25.727634747998636 0 32.285914726045576 -31.45240287607238 0
          -18.732306147503376 38.172541468590836 0 17.42129460906331 23.929755673071398 0
          -43.74567596165927 -36.843843838172035 0 -41.00470913383489 -49.1685554695042 0
          -4.3489588147394045 13.430332075080756 0 2.9762992276979077 -0.21305715242312573 0
          -16.420210149222868 -24.717665071237764 0 -26.63245586108499 -32.68369682188443 0
          9.59810303037343 22.68931438280859 0 37.757309281314306 20.71597266757422 0
          -26.523439665569285 -2.200425364398683 0 -48.17882370239545 24.733119867345934 0
          15.472358145094617 -42.19330576503555 0 -2.7230899171649696 49.647506705142575 0
          3.209752212846098 39.943600631846664 0 27.290092728339346 -29.624030405099575 0
          40.710862227344634 -12.518743865476708 0 34.808888796398136 -17.330075407408792 0
          -17.326333983387784 15.921061981020685 0 8.676498234140595 -45.101679767889145 0
          26.99656655139428 -0.8247828969564566 0 -1.181598492863479 -7.087342925864128 0
          -10.527228461045638 27.645380145270124 0 47.47543864880045 24.850515939083976 0
          13.45020038299144 -42.781974126121774 0 13.33632968921519 2.89206325620421 0
          -20.383234879262602 -17.467213088655853 0 13.111992425538233 49.45054225750374 0
          1.6047826830209004 22.445391370448775 0 -25.442525168919026 -16.766088433362327 0
          24.860911549332883 18.296648546241826 0 18.127137052491975 -42.11576276898946 0
          -4.106371249565804 19.81468592825003 0 -43.2115168522386 -43.085994704941484 0
          2.7042817825837204 -23.795120132132308 0 -1.6624837545658195 -36.91945356486498 0
          -40.55592314206473 -37.96183180819797 0 46.98372058379586 25.62816454897687 0
          -23.182362140209666 22.4905983535036 0 -8.42374893276238 -2.5281598168396826 0
          -44.45585735866184 11.374414308737222 0 -0.9380815156004232 40.44748670579848 0
          43.5214270198436 41.82766196839604 0 -19.617472876146607 29.010177679462174 0
          -27.377259211045168 -5.104813753149479 0 1.0108912986547693 -26.93680745999526 0
          21.18807799653547 48.4452609761332 0 15.521324819791857 -22.733301715898534 0
          -3.0984436752635744 -49.699879474370995 0 -5.357606698271908 47.09441502974741 0
          -19.533649987483585 -28.48909553641595 0 -25.241492794096537 30.645102659141713 0
          -1.3628901407151872 -9.249808436218693 0 -28.437070584076316 4.0252086974848424 0
          22.302423751473526 -21.630608392707323 0 4.286209731170565 25.592468486596516 0
          -16.80227135673981 30.176297340482108 0 35.70724318896097 -48.51082997011254 0
          38.494266527440914 9.308694076898924 0 -41.37827709570729 42.48759424258512 0
          41.371957205314274 48.07567751376408 0 40.00221093710812 44.971458396046486 0
          43.45219546574209 -49.16757290067578 0 27.77940311086799 -47.40411222574361 0
          8.787704962513757 14.978077069606684 0 -17.176354508003442 -38.89206379839693 0
          -37.572734230027905 47.39150589914381 0 3.322947059262674 16.230028184641725 0
          20.82576325094061 -43.12614201683975 0 -29.404442159877867 -6.6570323329381935 0
          -48.88074135310182 -43.07374742736768 0 -15.693819004659524 -18.776991949103287 0
          49.2742614956165 -23.093566379026992 0 35.70662412955289 -14.438908494432013 0
          24.676827977366614 34.48562696853686 0 -28.28613766609157 46.49521791482232 0
          21.219265309149932 48.266786794162286 0 25.989900495501132 -30.673962513745963 0
          -14.741048879365302 -30.369965831724773 0 33.206792723445574 45.25947670903301 0
          26.73700517552618 36.1968809297727 0 -4.433626259916984 -16.731616061562868 0
          33.82599634129042 5.430878965379037 0 -37.91344272052366 -28.781627030961573 0
          -0.8760744559602713 -9.034520229977083 0 25.951148963832622 -14.29357740625877 0
          27.17860558051683 48.15404052238152 0 34.61617221348607 33.462162550860555 0
          -13.28055184508198 -44.93740558320786 0 47.55616001461492 34.25892934866374 0
          36.946038841117556 -42.45015674570037 0 -46.76239316488481 11.393180618063838 0
          23.568028568935404 11.552780427737098 0 16.263007945057282 45.12644264060411 0
          -23.411248530157515 41.93857265065735 0 -38.160345232049345 -18.69342940760771 0
          37.21153998486223 -26.635630373860984 0 30.80584946405935 5.653176675427417 0
          44.35923105765637 0.370346282237378 0 16.64168251311186 -34.7034267378138 0
          47.322877480901255 13.376690736606477 0 -32.1350217035443 -42.58571958176201 0
          -0.5025219679409361 28.59799073613067 0 -3.5320261053794297 38.30316610148137 0
          14.736889949280638 40.32409694969634 0 -49.402638529229115 19.356180838194604 0
          8.508964450503598 -39.46387075781778 0 49.03198966734128 -27.000797471280585 0
          -16.70921662991016 18.938285128010065 0 46.14207459237997 -27.3400906744995 0
          42.424140585792586 37.62461911345025 0 -6.825547086494495 -2.911259141055119 0
          6.210247997996007 33.76154121673389 0 -35.16911208657487 13.927818279591207 0
          49.5593687100304 13.93941034113417 0 -6.0481675260535965 -47.161165000275155 0
          -41.68490984500472 3.0367185203014984 0 28.200151364646487 23.664522522360798 0
          -30.983903256438072 -23.817273645282434 0 -4.775523168997552 -3.9973115200368454 0
          17.36371431475763 -32.304692769073746 0 -31.21691646176371 -40.35131875297581 0
          -17.61253928181918 -32.96735050248542 0 -47.52659271635095 33.064298464373394 0
          -25.51716157275273 -35.79649925661745 0 -34.4558032257712 -19.698927528483058 0
          -46.64276824331557 -9.071061809886274 0 28.312364537561464 -5.662808823633235 0
          -48.25117889494449 -21.421563451189467 0 45.139670111270334 -32.86849758057289 0
          <InformationKey name="L2_NORM_RANGE" location="vtkDataArray" length="2">
            <Value index="0">
              2.9839152875
            </Value>
            <Value index="1">
              65.61664054
            </Value>
          </InformationKey>
        </DataArray>
        <DataArray type="Float64" Name="force" NumberOfComponents="3" format="ascii" RangeMin="0.49999999999999994" RangeMax="0.5">
          -0.47299241490171196 -0.16210544545278777 0 -0.1141253530565972 -0.4868011953453967 0
          -0.23295996562071256 -0.44241344285407563 0 -0.04624766017379898 0.49785655959166475 0
          -0.2974750606841858 0.40188131117400816 0 0.44297392980016453 0.2318924266063877 0
          0.496158067200389 0.06186414431618877 0 0.42985214710398945 0.25539602900219543 0
          0.49849524620851215 -0.038761959541731617 0 -0.2936759393430281 -0.40466584072662976 0
          -0.3915612021471503 0.31093379516076813 0 -0.4967821175790439 -0.05663503909843293 0
          0.004481080023659051 -0.49997991951859583 0 -0.20696815455635434 0.4551529226529662 0
          0.47506448183493755 0.15592863142765756 0 0.4941577220101472 0.07621119194542288 0
          -0.3872106997689793 -0.31633506600504685 0 -0.49999995712523454 0.00020706222165939046 0
          0.4918731703003338 -0.08978187087992104 0 -0.4612929092071486 -0.19289596137608828 0
          0.4166221314613605 0.27645252680450005 0 0.37460523937828355 -0.3311659925631539 0
          -0.3869758527463894 -0.31662231347649006 0 0.3449225922498748 0.36197845979509136 0
          -0.46160643170336674 -0.192144482642841 0 -0.28343971615080354 0.41190038517626065 0
          0.41152468842752754 -0.2839849130052975 0 0.4999406753969333 0.007702018154881699 0
          -0.4990513725335006 -0.030785184300717944 0 -0.15329732158409842 -0.4759200890854908 0
          0.21517152375606707 0.45133271027534916 0 -0.49974020742126296 -0.016115988537880613 0
          -0.4976091714013444 -0.048837613959605126 0 0.09832628654526258 0.49023661774108523 0
          0.44357615881658236 -0.230738361200573 0 -0.0192610727351094 0.4996288733420966 0
          0.31129643870885737 0.3912729574698239 0 -0.2797805158179467 -0.4143945740096553 0
          -0.47825081512414336 -0.14586349040487284 0 0.4971405227833316 -0.05339757116869415 0
          -0.2318552502293416 0.44299338927470394 0 0.24757192329001285 -0.43440550502783 0
          0.32651747125948394 -0.3786638891712703 0 -0.492202267658709 -0.08795980736463992 0
          0.02444782163144482 0.49940194634930796 0 -0.3328388527161772 0.3731196833759631 0
          0.3992388003900238 -0.30101225932366066 0 -0.3319605060194983 0.37390135389334794 0
          -0.079924405736492 -0.49357075416567037 0 -0.42651249500590205 0.2609350333010889 0
          0.29617663670713856 -0.40283917370192246 0 0.3996998054133545 -0.3003998427971069 0
          0.48744516175034625 -0.11134277832970932 0 0.07218455576928903 0.49476195276960255 0
          -0.18075870879167635 0.4661826779235431 0 -0.4946875616807056 0.07269261529480198 0
          -0.45754816607183946 -0.2016176473533416 0 0.2104162337616779 0.4535691882938599 0
          -0.0916301052606434 -0.49153222052061185 0 0.426607382058673 -0.2607798718709813 0
          -0.4049856988167463 -0.2932346905703888 0 -0.19931886057802536 -0.45855424086783636 0
          -0.4445298308386684 -0.22889567382225648 0 0.38106546105841704 -0.32371146780479687 0
          0.36752443931702766 -0.33900705966794326 0 -0.49962432193893486 -0.019378775169230093 0
          0.49435085266823275 -0.07494821189455589 0 -0.4887499113160324 -0.10546811929948524 0
          -0.3117537874873522 0.390908654275255 0 0.49992610319315306 0.008596007567985986 0
          -0.1011581048401848 0.4896601248061171 0 -0.05524384268966013 0.49693874657233167 0
          0.02219764557895426 0.49950702150295256 0 -0.007525609507688861 0.499943361993674 0
          0.10699014047465173 -0.4884189900497464 0 -0.4996132623074127 0.0196618444339394 0
          -0.49144038599151574 -0.0921213711171844 0 0.294436427204346 -0.40411284356617505 0
          -0.15459634473285286 0.4754997057782906 0 0.15992994271300678 -0.47373242808975446 0
          -0.35203460217091337 0.3550656824791249 0 0.4522723263481179 -0.21318945288090946 0
          -0.3054515780774413 -0.3958526663419116 0 -0.4917105336552033 -0.09066835772481584 0
          -0.47753449197246584 -0.14819179793969356 0 0.1835182125989135 0.4651032849212097 0
          -0.48770311412054784 -0.11020740663458094 0 0.13289868642815297 -0.4820144594777956 0
          0.4977969853010483 -0.04688455422831589 0 0.028939436053583026 0.49916180647251107 0
          -0.22979747120903304 -0.44406432217183767 0 -0.3972905944188826 -0.303578957746236 0
          -0.49311399595543803 -0.08269574954530774 0 0.1718641638570577 -0.46953456654618564 0
          0.25675675668007325 0.42904075319150003 0 0.48658177417016263 0.11505727723797766 0
          -0.48972931742366715 0.10082259496635189 0 0.492242460774911 -0.08773459870689652 0
          -0.47343112717226726 -0.1608196748672142 0 0.434961966334832 -0.24659295983895502 0
          -0.35767731354813104 0.3493807942245709 0 0.3585113873757127 -0.3485248701627212 0
          -0.37899715321973376 -0.326130584047767 0 0.4656151149877089 -0.18221570924314562 0
          -0.37565273246517145 0.32997730920693674 0 -0.4622726443174257 0.19053609189803072 0
          0.4236529747761147 0.26555255028590624 0 0.3112771997169316 -0.39128826322340093 0
          0.22054685509918195 -0.44873052571210315 0 -0.4899730828393352 -0.09963121043587664 0
          -0.09866045997603669 0.4901694744038197 0 -0.022926205145346403 -0.499474112560034 0
          0.1591917595924798 -0.4739809950597704 0 0.4604066947263519 -0.1950017319183495 0
          0.06688824383368475 -0.495505764685786 0 0.05227150037718722 -0.4972601836547118 0
          -0.22881201963522804 -0.44457289578925974 0 -0.4142752237169278 -0.2799572092557886 0
          -0.3612012711447671 0.3457363760488683 0 0.2592760140229476 -0.4275230386217476 0
          0.4813603959390499 0.13524854609718043 0 0.18538575682883965 -0.46436205827457344 0
          0.2738246696936816 -0.41835397723356976 0 -0.07054256546501377 0.4949987337939505 0
          0.2893067374777863 -0.40780094611214335 0 -0.20801059679470657 -0.4546774588882871 0
          -0.4999388010519125 -0.007822736271679384 0 0.42258833618479075 -0.26724351838832366 0
          -0.3806748017303489 0.3241707811132268 0 -0.4765245873697795 0.15140778590304207 0
          0.2993467160533882 0.4004891304243502 0 0.3552957634898547 0.3518023883463005 0
          0.4394702842249532 0.23846565640200446 0 -0.4494279022847925 0.2191222504628204 0
          -0.4540377449947293 0.20940326196146308 0 -0.4816599798508862 -0.13417773216910422 0
          0.3036122377485375 0.39726516218934366 0 0.4266479200222432 0.26071354460536483 0
          -0.4484751219402396 -0.22106574813997582 0 0.13663194935656636 0.4809695524823008 0
          -0.02028233854566719 -0.4995884573757874 0 0.4996413006870282 0.018935961759959905 0
          -0.46710993919236393 0.17834882872535524 0 0.36655860384310673 0.34005115784039364 0
          0.49998995002763613 0.003170153207957933 0 -0.41479832061263583 -0.2791815775027733 0
          0.22856788985745444 0.4446984593250921 0 -0.46011577229776585 0.19568718936821206 0
          -0.3005272136835653 0.39960404632034535 0 0.33106893909041213 0.3746910161313572 0
          0.05284708204944011 -0.4971993422349428 0 0.07477650678939882 0.4943768542644113 0
          0.29792886157283693 0.40154500799027915 0 0.03103451307483953 -0.4990359295664067 0
          <InformationKey name="L2_NORM_RANGE" location="vtkDataArray" length="2">
            <Value index="0">
              0.5
            </Value>
            <Value index="1">
              0.5
            </Value>
          </InformationKey>
        </DataArray>
        <DataArray type="Float64" Name="radius" format="ascii" RangeMin="1" RangeMax="1">
          1 1 1 1 1 1
          1 1 1 1 1 1
          1 1 1 1 1 1
          1 1 1 1 1 1
          1 1 1 1 1 1
          1 1 1 1 1 1
          1 1 1 1 1 1
          1 1 1 1 1 1
          1 1 1 1 1 1
          1 1 1 1 1 1
          1 1 1 1 1 1
          1 1 1 1 1 1
          1 1 1 1 1 1
          1 1 1 1 1 1
          1 1 1 1 1 1
          1 1 1 1 1 1
          1 1 1 1 1 1
          1 1 1 1 1 1
          1 1 1 1 1 1
          1 1 1 1 1 1
          1 1 1 1 1 1
          1 1 1 1 1 1
          1 1 1 1 1 1
          1 1 1 1 1 1
          1 1 1 1 1 1
          1 1 1 1
        </DataArray>
      </PointData>
      <CellData>
      </CellData>
      <Points>
        <DataArray type="Float32" Name="Points" NumberOfComponents="3" format="ascii" RangeMin="2.1572616027025395" RangeMax="67.90882468059175">
          -36.736915588378906 33.797794342041016 0 47.20553970336914 -27.760007858276367 0
          -19.1069278717041 4.526865482330322 0 -31.05692481994629 49.232749938964844 0
          49.455074310302734 46.53820037841797 0 22.770706176757812 48.41283416748047 0
          -39.074275970458984 29.653263092041016 0 -20.25977325439453 -49.77215576171875 0
          -38.34605026245117 13.76008129119873 0 37.5794563293457 0.3826488256454468 0
          29.810588836669922 -13.662367820739746 0 -28.708616256713867 18.15847396850586 0
          -10.36514949798584 23.983016967773438 0 -2.758199453353882 -7.888234615325928 0
          -32.60877990722656 -19.38132667541504 0 29.654834747314453 -18.718685150146484 0
          37.279361724853516 -35.299278259277344 0 49.30174255371094 32.1058349609375 0
          -37.52458190917969 26.24027442932129 0 -1.022605299949646 15.79418659210205 0
          -37.56261444091797 -29.246713638305664 0 -44.91659927368164 -46.24741744995117 0
          -9.062164306640625 -3.991708517074585 0 -0.9398718476295471 29.682355880737305 0
          42.266929626464844 30.72134780883789 0 20.847951889038086 -49.60337448120117 0
          20.91499137878418 14.140363693237305 0 -4.380824089050293 27.327144622802734 0
          7.374007701873779 37.916770935058594 0 30.913286209106445 -47.79732131958008 0
          32.12940216064453 32.30405044555664 0 43.68444061279297 -8.611340522766113 0
          -7.952694892883301 8.018349647521973 0 -34.15491485595703 26.138574600219727 0
          -26.42873764038086 30.829971313476562 0 49.18895721435547 -17.01017189025879 0
          -20.3776912689209 -48.659175872802734 0 -28.623239517211914 40.57120132446289 0
          34.84975814819336 45.60524368286133 0 27.916669845581055 49.12731170654297 0
          -43.2777099609375 29.420194625854492 0 9.186341285705566 23.177000045776367 0
          19.37187957763672 18.120363235473633 0 -10.62527847290039 5.948424339294434 0
          -29.31260108947754 2.419229030609131 0 -9.544136047363281 -14.98001480102539 0
          9.819177627563477 -14.105276107788086 0 46.516845703125 -34.49187469482422 0
          -10.617959976196289 -11.185965538024902 0 22.680593490600586 -11.332602500915527 0
          42.765079498291016 -6.101696491241455 0 35.57380294799805 11.777581214904785 0
          -37.59431457519531 -2.5011019706726074 0 -15.891481399536133 2.923964023590088 0
          21.626216888427734 48.81401443481445 0 22.002092361450195 41.43437957763672 0
          0.7864275574684143 5.8513102531433105 0 0.40224212408065796 -3.9451820850372314 0
          4.530776500701904 -5.368862628936768 0 35.323272705078125 10.501361846923828 0
          0.04396861046552658 47.386539459228516 0 -46.83283233642578 47.8691520690918 0
          -13.694091796875 17.76426887512207 0 -14.845212936401367 35.423274993896484 0
          -45.378944396972656 15.753874778747559 0 25.050329208374023 -36.633121490478516 0
          48.57929992675781 -40.20246124267578 0 -22.06475257873535 30.363609313964844 0
          -42.26517868041992 12.672565460205078 0 -49.723976135253906 18.101654052734375 0
          3.3560101985931396 -6.058368682861328 0 -29.989826202392578 -35.98997497558594 0
          -11.641050338745117 26.65860939025879 0 -45.8006706237793 -24.83436393737793 0
          1.0272401571273804 32.75703430175781 0 48.11497116088867 32.32057571411133 0
          -19.672279357910156 -44.46449661254883 0 -24.887714385986328 3.844649314880371 0
          38.60939407348633 -15.662696838378906 0 -47.149776458740234 -33.693336486816406 0
          38.094261169433594 -29.175140380859375 0 -23.117067337036133 -0.9230523705482483 0
          -27.532611846923828 -0.5064481496810913 0 44.867431640625 15.206402778625488 0
          25.936386108398438 -6.781685829162598 0 5.103957176208496 -44.6490592956543 0
          -17.442880630493164 -9.554234504699707 0 40.950439453125 31.113466262817383 0
          -24.186187744140625 -36.60919189453125 0 -0.9003995656967163 -11.579107284545898 0
          21.486194610595703 -21.322410583496094 0 12.081650733947754 31.094709396362305 0
          -19.079486846923828 -12.002132415771484 0 -15.619033813476562 31.121868133544922 0
          17.095849990844727 -12.151153564453125 0 -4.353762626647949 -19.84813117980957 0
          40.84067916870117 -1.346625566482544 0 25.398757934570312 -39.10721969604492 0
          -10.593314170837402 37.126739501953125 0 -13.982832908630371 41.76063537597656 0
          4.982391834259033 -35.94386672973633 0 -29.986133575439453 45.3884162902832 0
          49.14960479736328 -26.08438491821289 0 -48.630401611328125 -11.148863792419434 0
          27.940231323242188 -2.4643476009368896 0 3.7759897708892822 -48.34185028076172 0
          40.0150146484375 -30.19463539123535 0 38.74558639526367 -5.646127223968506 0
          -35.02398681640625 -25.91849708557129 0 29.837373733520508 -2.9553141593933105 0
          -41.420440673828125 14.226222038269043 0 13.555562019348145 8.15994644165039 0
          22.89877700805664 -14.592121124267578 0 18.193939208984375 21.038116455078125 0
          -33.70919418334961 -36.73268508911133 0 -5.095015048980713 -46.0100212097168 0
          29.722232818603516 -33.20287322998047 0 33.45829391479492 -17.402727127075195 0
          15.57768726348877 -8.107964515686035 0 28.051692962646484 -38.84193420410156 0