<?xml version="1.0"?>
<VTKFile type="PolyData" version="0.1" byte_order="LittleEndian" header_type="UInt32" compressor="vtkZLibDataCompressor">
  <PolyData>
    <Piece NumberOfPoints="154" NumberOfVerts="0" NumberOfLines="0" NumberOfStrips="0" NumberOfPolys="0">
      <PointData>
        <DataArray type="Int32" Name="id" format="ascii" RangeMin="0" RangeMax="153">
          0 1 2 3 4 5
          6 7 8 9 10 11
          12 13 14 15 16 17
          18 19 20 21 22 23
          24 25 26 27 28 29
          30 31 32 33 34 35
          36 37 38 39 40 41
          42 43 44 45 46 47
          48 49 50 51 52 53
          54 55 56 57 58 59
          60 61 62 63 64 65
          66 67 68 69 70 71
          72 73 74 75 76 77
          78 79 80 81 82 83
          84 85 86 87 88 89
          90 91 92 93 94 95
          96 97 98 99 100 101
          102 103 104 105 106 107
          108 109 110 111 112 113
          114 115 116 117 118 119
          120 121 122 123 124 125
          126 127 128 129 130 131
          132 133 134 135 136 137
          138 139 140 141 142 143
          144 145 146 147 148 149
          150 151 152 153
        </DataArray>
        <DataArray type="Float64" Name="director" NumberOfComponents="3" format="ascii" RangeMin="0.9999999999999999" RangeMax="1">
          -0.945578585116787 -0.3253938219581545 0 -0.209331254651427 -0.9778447861629469 0
          -0.4377624453079222 -0.8990906747809302 0 -0.029400164322912464 0.9995677217366444 0
          -0.6149943480832063 0.7885315160636968 0 0.8688779054758284 0.4950264491680594 0
          0.9950453706007879 0.09942188112252107 0 0.8767258824476294 0.48099036065853296 0
          0.9922973164893854 -0.12387911723920435 0 -0.5879238529091287 -0.808916276990694 0
          -0.7829090236202465 0.6221362075413971 0 -0.9995338593514883 -0.03052972338425639 0
          -0.0612968561570439 -0.9981195797224212 0 -0.49801773924610016 0.8671668417301271 0
          0.9714022883840547 0.2374396641722309 0 0.9949286726880775 0.10058298197578142 0
          -0.7759276487691833 -0.6308219113787401 0 -0.9999467747263883 -0.01031735015853252 0
          0.9798505982149486 -0.19973183316088453 0 -0.921345559589466 -0.3887445945923543 0
          0.8270211306302097 0.5621708365711705 0 0.7284012211094727 -0.6851508309023854 0
          -0.8142215900235833 -0.5805542199824818 0 0.7038076654163749 0.710390575740664 0
          -0.9155647342768227 -0.4021706321309537 0 -0.6246966098799461 0.7808675595800496 0
          0.8167848028801615 -0.5769424458158853 0 0.9987968038027994 0.049040235657183975 0
          -0.9973217551608049 -0.07313902298343605 0 -0.23377339151115276 -0.9722911094015892 0
          0.5058107155233842 0.8626444922804075 0 -0.9997626035205688 -0.021788451110027203 0
          -0.9999183215378844 0.012780854934626426 0 0.2441594579366423 0.9697350973848915 0
          0.9041079601519008 -0.4273041029407148 0 -0.002420463785674339 0.9999970706732406 0
          0.6259285773675237 0.7798803857224952 0 -0.5427818076195564 -0.8398737460578506 0
          -0.9551959085512333 -0.295974283151398 0 0.994650005770302 -0.10330230404564146 0
          -0.4800920454882535 0.877218118747501 0 0.5173541132948775 -0.8557714189296527 0
          0.6364289676052272 -0.771335315665596 0 -0.969799278432023 -0.24390440658735033 0
          0.03756357176653033 0.9992942399894741 0 -0.6484636380705537 0.7612456305952119 0
          0.8110694116022603 -0.584949920560011 0 -0.6742439031741051 0.7385087399838596 0
          -0.1112133168828964 -0.9937965577259283 0 -0.8876904401460469 0.4604407480592019 0
          0.5962237279910365 -0.8028183270083403 0 0.7994700194953107 -0.6007059912537642 0
          0.9716816938464768 -0.23629364325694768 0 0.15811257097904238 0.9874210929985228 0
          -0.32501130125178196 0.9457101321539404 0 -0.9896775573648182 0.1433120108309379 0
          -0.9174924883278385 -0.39775310666541763 0 0.37200386323836176 0.9282311811912667 0
          -0.16421589005767814 -0.9864244225750722 0 0.8581399577757495 -0.513415828416533 0
          -0.8403548429194533 -0.5420366574151797 0 -0.37487375925069016 -0.9270758677828129 0
          -0.8780354649929275 -0.4785955727069083 0 0.7251588167539063 -0.6885816512833279 0
          0.7048540858704482 -0.7093523226378657 0 -0.9965150797413187 -0.08341280386219667 0
          0.9878519902904417 -0.15539770036655343 0 -0.9619095111829791 -0.27336805280742354 0
          -0.603985987287608 0.7969949354671041 0 0.9998294607216289 -0.018467524823229664 0
          -0.16672221730610487 0.9860039058018665 0 -0.19204360303028054 0.9813863941053738 0
          0.0768349508269066 0.9970438256824155 0 -0.04778711768299082 0.998857543087878 0
          0.25616040805949664 -0.9666342872786958 0 -0.9985167735698334 0.054444952931286934 0
          -0.981509098525635 -0.19141548921494173 0 0.587232220785393 -0.8094185066277243 0
          -0.2770848205813209 0.9608454621859944 0 0.3480576221457206 -0.9374731418372831 0
          -0.7162338191313683 0.6978603845558898 0 0.906453802938107 -0.4223049882952408 0
          -0.6581442130698418 -0.7528918878581962 0 -0.988360907744825 -0.1521273020921151 0
          -0.9600857329913687 -0.27970589072528707 0 0.36316938504308627 0.9317231336440169 0
          -0.9714493387035458 -0.23724709130449567 0 0.2592285392790657 -0.9658160096122045 0
          0.9986205028692733 -0.05250801128513431 0 0.019112363016698015 0.9998173421080062 0
          -0.4485266101518065 -0.893769478101445 0 -0.8211928555656834 -0.5706507635742536 0
          -0.9780574017376747 -0.2083355920291797 0 0.33806223280085707 -0.9411237574058468 0
          0.4986323255409766 0.8668135923747375 0 0.9633437924837241 0.26826989671425205 0
          -0.9667350529799595 0.25577986109120265 0 0.9881719337241961 -0.1533500224968455 0
          -0.9600488460033204 -0.27983247361178937 0 0.8746851559867451 -0.48469152859983355 0
          -0.6830705096674945 0.7303524346660243 0 0.7719656630168634 -0.6356642314327072 0
          -0.8007202848629833 -0.5990384173063885 0 0.9460546287974856 -0.3240071593820912 0
          -0.7307388684585657 0.6826570926342851 0 -0.9192090708867314 0.39376983632517104 0
          0.8226815368796428 0.5685024968083684 0 0.6428276212829561 -0.7660108676224485 0
          0.42073224122103314 -0.9071848660538415 0 -0.9892167593168434 -0.14645887848362854 0
          -0.09669337885129135 0.9953142169618199 0 -0.006787331083004646 -0.9999769658030977 0
          0.33931530311271757 -0.9406726981652676 0 0.906716174370176 -0.4217413652174904 0
          0.10452179194256778 -0.9945225965301716 0 0.09668378004181452 -0.9953151494259624 0
          -0.48806044393009196 -0.8728098321345615 0 -0.7766964036198516 -0.629875143662606 0
          -0.7411848593498773 0.6713009788988116 0 0.56868321846973 -0.8225566223859057 0
          0.9763990542606564 0.2159742735579765 0 0.35732671426754137 -0.9339794533450738 0
          0.5785763464554091 -0.8156282310724111 0 -0.058268212088985055 0.9983009643689387 0
          0.5871422569000486 -0.8094837676953858 0 -0.4142344959412666 -0.9101701941792452 0
          -0.9996654462884126 0.025864947264373207 0 0.8338761236127427 -0.5519516377986262 0
          -0.7113615832521298 0.7028262216743362 0 -0.9609534982868678 0.2767099097073154 0
          0.5726649685228603 0.8197895058042103 0 0.70779617332135 0.7064167162742211 0
          0.8740478272880565 0.4858398868074004 0 -0.8844986116710585 0.466542823277746 0
          -0.9217250226374101 0.38784401844564503 0 -0.9625973577768003 -0.27093601975581355 0
          0.6740489035519096 0.7386867235983523 0 0.8691082948698206 0.4946218472615954 0
          -0.8961880448795007 -0.4436744169039477 0 0.31058231571347256 0.9505464876406924 0
          -0.0023904250466696797 -0.9999971429299667 0 0.9993258152988644 0.036713960250290584 0
          -0.9115005893350314 0.41129876688593475 0 0.7444215598878166 0.6677099229262584 0
          0.9975762298054301 0.06958207906626264 0 -0.8728713503340557 -0.48795041322454297 0
          0.4476659202624009 0.8942008856155409 0 -0.9358166519119693 0.3524871543819323 0
          -0.6601678290348372 0.7511181248694709 0 0.6738733490709881 0.7388468781905019 0
          0.10408766532557766 -0.9945681263377942 0 0.1796297458782465 0.9837342905458346 0
          0.5867577872773238 0.8097624954697636 0 0.09339967337427223 -0.9956286963590288 0
          <InformationKey name="L2_NORM_RANGE" location="vtkDataArray" length="2">
            <Value index="0">
              1
            </Value>
            <Value index="1">
              1
            </Value>
          </InformationKey>
        </DataArray>
        <DataArray type="Float64" Name="velocity" NumberOfComponents="3" format="ascii" RangeMin="2.98391528750295" RangeMax="65.61664053985334">
          20.472372037415383 -30.489259884928693 0 -7.778161120144524 43.605506408926914 0
          -35.778279556590725 14.318100471258902 0 -2.7267860528004704 -6.306708942777526 0
          -25.56803597993237 0.5919415230237348 0 40.69440930810454 -42.34960265147567 0
          21.390392053252754 11.720491675449018 0 -31.091580543867785 -10.301819378431787 0
          -22.233594277397 35.80993014386058 0 40.8936574712134 11.727908496204755 0
          -31.918129728714472 1.502371966558826 0 32.46317064138093 -14.067556233339687 0
          31.61170207931397 -20.66117562390716 0 -32.788218903188394 -0.7210412736466054 0
          -30.467523066969363 36.43074923190564 0 -29.58028331655805 11.627227611362315 0
          37.80505508071815 -10.753091333426255 0 44.65772551607054 -33.330173144632525 0
          47.18774005931614 6.396489460552942 0 9.836891189866492 -36.87781496106794 0
          6.677739541459459 5.438027088135769 0 -18.951003944933063 -37.93510690561732 0
          23.77908201111339 -25.727634747998636 0 32.285914726045576 -31.45240287607238 0
          -18.732306147503376 38.172541468590836 0 17.42129460906331 23.929755673071398 0
          -43.74567596165927 -36.843843838172035 0 -41.00470913383489 -49.1685554695042 0
          -4.3489588147394045 13.430332075080756 0 2.9762992276979077 -0.21305715242312573 0
          -16.420210149222868 -24.717665071237764 0 -26.63245586108499 -32.68369682188443 0
          9.59810303037343 22.68931438280859 0 37.757309281314306 20.71597266757422 0
          -26.523439665569285 -2.200425364398683 0 -48.17882370239545 24.733119867345934 0
          15.472358145094617 -42.19330576503555 0 -2.7230899171649696 49.647506705142575 0
          3.209752212846098 39.943600631846664 0 27.290092728339346 -29.624030405099575 0
          40.710862227344634 -12.518743865476708 0 34.808888796398136 -17.330075407408792 0
          -17.326333983387784 15.921061981020685 0 8.676498234140595 -45.101679767889145 0
          26.99656655139428 -0.8247828969564566 0 -1.181598492863479 -7.087342925864128 0
          -10.527228461045638 27.645380145270124 0 47.47543864880045 24.850515939083976 0
          13.45020038299144 -42.781974126121774 0 13.33632968921519 2.89206325620421 0
          -20.383234879262602 -17.467213088655853 0 13.111992425538233 49.45054225750374 0
          1.6047826830209004 22.445391370448775 0 -25.442525168919026 -16.766088433362327 0
          24.860911549332883 18.296648546241826 0 18.127137052491975 -42.11576276898946 0
          -4.106371249565804 19.81468592825003 0 -43.2115168522386 -43.085994704941484 0
          2.7042817825837204 -23.795120132132308 0 -1.6624837545658195 -36.91945356486498 0
          -40.55592314206473 -37.96183180819797 0 46.98372058379586 25.62816454897687 0
          -23.182362140209666 22.4905983535036 0 -8.42374893276238 -2.5281598168396826 0
          -44.45585735866184 11.374414308737222 0 -0.9380815156004232 40.44748670579848 0
          43.5214270198436 41.82766196839604 0 -19.617472876146607 29.010177679462174 0
          -27.377259211045168 -5.104813753149479 0 1.0108912986547693 -26.93680745999526 0
          21.18807799653547 48.4452609761332 0 15.521324819791857 -22.733301715898534 0
          -3.0984436752635744 -49.699879474370995 0 -5.357606698271908 47.09441502974741 0
          -19.533649987483585 -28.48909553641595 0 -25.241492794096537 30.645102659141713 0
          -1.3628901407151872 -9.249808436218693 0 -28.437070584076316 4.0252086974848424 0
          22.302423751473526 -21.630608392707323 0 4.286209731170565 25.592468486596516 0
          -16.80227135673981 30.176297340482108 0 35.70724318896097 -48.51082997011254 0
          38.494266527440914 9.308694076898924 0 -41.37827709570729 42.48759424258512 0
          41.371957205314274 48.07567751376408 0 40.00221093710812 44.971458396046486 0
          43.45219546574209 -49.16757290067578 0 27.77940311086799 -47.40411222574361 0
          8.787704962513757 14.978077069606684 0 -17.176354508003442 -38.89206379839693 0
          -37.572734230027905 47.39150589914381 0 3.322947059262674 16.230028184641725 0
          20.82576325094061 -43.12614201683975 0 -29.404442159877867 -6.6570323329381935 0
          -48.88074135310182 -43.07374742736768 0 -15.693819004659524 -18.776991949103287 0
          49.2742614956165 -23.093566379026992 0 35.70662412955289 -14.438908494432013 0
          24.676827977366614 34.48562696853686 0 -28.28613766609157 46.49521791482232 0
          21.219265309149932 48.266786794162286 0 25.989900495501132 -30.673962513745963 0
          -14.741048879365302 -30.369965831724773 0 33.206792723445574 45.25947670903301 0
          26.73700517552618 36.1968809297727 0 -4.433626259916984 -16.731616061562868 0
          33.82599634129042 5.430878965379037 0 -37.91344272052366 -28.781627030961573 0
          -0.8760744559602713 -9.034520229977083 0 25.951148963832622 -14.29357740625877 0
          27.17860558051683 48.15404052238152 0 34.61617221348607 33.462162550860555 0
          -13.28055184508198 -44.93740558320786 0 47.55616001461492 34.25892934866374 0
          36.946038841117556 -42.45015674570037 0 -46.76239316488481 11.393180618063838 0
          23.568028568935404 11.552780427737098 0 16.263007945057282 45.12644264060411 0
          -23.411248530157515 41.93857265065735 0 -38.160345232049345 -18.69342940760771 0
          37.21153998486223 -26.635630373860984 0 30.80584946405935 5.653176675427417 0
          44.35923105765637 0.370346282237378 0 16.64168251311186 -34.7034267378138 0
          47.322877480901255 13.376690736606477 0 -32.1350217035443 -42.58571958176201 0
          -0.5025219679409361 28.59799073613067 0 -3.5320261053794297 38.30316610148137 0
          14.736889949280638 40.32409694969634 0 -49.402638529229115 19.356180838194604 0
          8.508964450503598 -39.46387075781778 0 49.03198966734128 -27.000797471280585 0
          -16.70921662991016 18.938285128010065 0 46.14207459237997 -27.3400906744995 0
          42.424140585792586 37.62461911345025 0 -6.825547086494495 -2.911259141055119 0
          6.210247997996007 33.76154121673389 0 -35.16911208657487 13.927818279591207 0
          49.5593687100304 13.93941034113417 0 -6.0481675260535965 -47.161165000275155 0
          -41.68490984500472 3.0367185203014984 0 28.200151364646487 23.664522522360798 0
          -30.983903256438072 -23.817273645282434 0 -4.775523168997552 -3.9973115200368454 0
          17.36371431475763 -32.304692769073746 0 -31.21691646176371 -40.35131875297581 0
          -17.61253928181918 -32.96735050248542 0 -47.52659271635095 33.064298464373394 0
          -25.51716157275273 -35.79649925661745 0 -34.4558032257712 -19.698927528483058 0
          -46.64276824331557 -9.071061809886274 0 28.312364537561464 -5.662808823633235 0
          -48.25117889494449 -21.421563451189467 0 45.139670111270334 -32.86849758057289 0
          <InformationKey name="L2_NORM_RANGE" location="vtkDataArray" length="2">
            <Value index="0">
              2.9839152875
            </Value>
            <Value index="1">
              65.61664054
            </Value>
          </InformationKey>
        </DataArray>
        <DataArray type="Float64" Name="force" NumberOfComponents="3" format="ascii" RangeMin="0.49999999999999994" RangeMax="0.5">
          -0.4727892925583935 -0.16269691097907726 0 -0.1046656273257135 -0.48892239308147345 0
          -0.2188812226539611 -0.4495453373904651 0 -0.014700082161456232 0.4997838608683222 0
          -0.30749717404160315 0.3942657580318484 0 0.4344389527379142 0.2475132245840297 0
          0.49752268530039395 0.04971094056126053 0 0.4383629412238147 0.24049518032926648 0
          0.4961486582446927 -0.061939558619602174 0 -0.29396192645456437 -0.404458138495347 0
          -0.39145451181012325 0.31106810377069855 0 -0.49976692967574415 -0.015264861692128194 0
          -0.03064842807852195 -0.4990597898612106 0 -0.24900886962305008 0.4335834208650636 0
          0.48570114419202737 0.11871983208611545 0 0.49746433634403875 0.05029149098789071 0
          -0.38796382438459165 -0.31541095568937005 0 -0.49997338736319413 -0.00515867507926626 0
          0.4899252991074743 -0.09986591658044226 0 -0.460672779794733 -0.19437229729617714 0
          0.4135105653151048 0.28108541828558525 0 0.36420061055473635 -0.3425754154511927 0
          -0.40711079501179165 -0.2902771099912409 0 0.3519038327081874 0.355195287870332 0
          -0.45778236713841136 -0.20108531606547686 0 -0.31234830493997306 0.3904337797900248 0
          0.40839240144008077 -0.28847122290794264 0 0.4993984019013997 0.024520117828591988 0
          -0.49866087758040245 -0.036569511491718026 0 -0.11688669575557638 -0.4861455547007946 0
          0.2529053577616921 0.43132224614020376 0 -0.4998813017602844 -0.010894225555013601 0
          -0.4999591607689422 0.006390427467313213 0 0.12207972896832114 0.48486754869244575 0
          0.4520539800759504 -0.2136520514703574 0 -0.0012102318928371694 0.4999985353366203 0
          0.31296428868376186 0.3899401928612476 0 -0.2713909038097782 -0.4199368730289253 0
          -0.47759795427561663 -0.147987141575699 0 0.497325002885151 -0.05165115202282073 0
          -0.24004602274412676 0.4386090593737505 0 0.25867705664743873 -0.42788570946482635 0
          0.3182144838026136 -0.385667657832798 0 -0.4848996392160115 -0.12195220329367516 0
          0.018781785883265165 0.49964711999473704 0 -0.32423181903527687 0.38062281529760594 0
          0.40553470580113016 -0.2924749602800055 0 -0.33712195158705255 0.3692543699919298 0
          -0.0556066584414482 -0.49689827886296417 0 -0.44384522007302346 0.23022037402960094 0
          0.29811186399551826 -0.40140916350417016 0 0.39973500974765536 -0.3003529956268821 0
          0.4858408469232384 -0.11814682162847384 0 0.07905628548952119 0.4937105464992614 0
          -0.16250565062589098 0.4728550660769702 0 -0.4948387786824091 0.07165600541546895 0
          -0.45874624416391924 -0.19887655333270882 0 0.18600193161918088 0.46411559059563334 0
          -0.08210794502883907 -0.4932122112875361 0 0.42906997888787474 -0.2567079142082665 0
          -0.42017742145972664 -0.27101832870758985 0 -0.18743687962534508 -0.46353793389140646 0
          -0.43901773249646375 -0.23929778635345414 0 0.3625794083769531 -0.34429082564166397 0
          0.3524270429352241 -0.35467616131893287 0 -0.49825753987065935 -0.041706401931098334 0
          0.49392599514522084 -0.07769885018327671 0 -0.48095475559148954 -0.13668402640371177 0
          -0.301992993643804 0.39849746773355205 0 0.49991473036081446 -0.009233762411614832 0
          -0.08336110865305243 0.49300195290093324 0 -0.09602180151514027 0.4906931970526869 0
          0.0384174754134533 0.4985219128412077 0 -0.02389355884149541 0.499428771543939 0
          0.12808020402974832 -0.4833171436393479 0 -0.4992583867849167 0.027222476465643467 0
          -0.4907545492628175 -0.09570774460747086 0 0.2936161103926965 -0.40470925331386215 0
          -0.13854241029066044 0.4804227310929972 0 0.1740288110728603 -0.46873657091864157 0
          -0.35811690956568415 0.3489301922779449 0 0.4532269014690535 -0.2111524941476204 0
          -0.3290721065349209 -0.3764459439290981 0 -0.4941804538724125 -0.07606365104605756 0
          -0.48004286649568434 -0.13985294536264353 0 0.18158469252154313 0.46586156682200847 0
          -0.4857246693517729 -0.11862354565224784 0 0.12961426963953285 -0.48290800480610224 0
          0.49931025143463664 -0.026254005642567156 0 0.009556181508349007 0.4999086710540031 0
          -0.22426330507590325 -0.4468847390507225 0 -0.4105964277828417 -0.2853253817871268 0
          -0.4890287008688374 -0.10416779601458985 0 0.16903111640042853 -0.4705618787029234 0
          0.2493161627704883 0.43340679618736877 0 0.4816718962418621 0.13413494835712603 0
          -0.48336752648997977 0.12788993054560133 0 0.49408596686209805 -0.07667501124842276 0
          -0.4800244230016602 -0.13991623680589468 0 0.43734257799337256 -0.24234576429991678 0
          -0.34153525483374725 0.36517621733301214 0 0.3859828315084317 -0.3178321157163536 0
          -0.40036014243149165 -0.29951920865319426 0 0.4730273143987428 -0.1620035796910456 0
          -0.36536943422928286 0.34132854631714254 0 -0.4596045354433657 0.19688491816258552 0
          0.4113407684398214 0.2842512484041842 0 0.32141381064147806 -0.38300543381122426 0
          0.21036612061051657 -0.45359243302692076 0 -0.4946083796584217 -0.07322943924181427 0
          -0.04834668942564568 0.49765710848090994 0 -0.003393665541502323 -0.49998848290154885 0
          0.16965765155635879 -0.4703363490826338 0 0.453358087185088 -0.2108706826087452 0
          0.05226089597128389 -0.4972612982650858 0 0.04834189002090726 -0.4976575747129812 0
          -0.24403022196504598 -0.43640491606728077 0 -0.3883482018099258 -0.314937571831303 0
          -0.37059242967493866 0.3356504894494058 0 0.284341609234865 -0.41127831119295283 0
          0.4881995271303282 0.10798713677898825 0 0.17866335713377068 -0.4669897266725369 0
          0.28928817322770456 -0.40781411553620556 0 -0.029134106044492528 0.49915048218446934 0
          0.2935711284500243 -0.4047418838476929 0 -0.2071172479706333 -0.4550850970896226 0
          -0.4998327231442063 0.012932473632186603 0 0.41693806180637133 -0.2759758188993131 0
          -0.3556807916260649 0.3514131108371681 0 -0.4804767491434339 0.1383549548536577 0
          0.28633248426143015 0.40989475290210514 0 0.353898086660675 0.35320835813711055 0
          0.43702391364402826 0.2429199434037002 0 -0.44224930583552924 0.233271411638873 0
          -0.46086251131870504 0.19392200922282252 0 -0.48129867888840017 -0.13546800987790678 0
          0.3370244517759548 0.36934336179917615 0 0.4345541474349103 0.2473109236307977 0
          -0.44809402243975033 -0.22183720845197386 0 0.15529115785673628 0.4752732438203462 0
          -0.0011952125233348398 -0.49999857146498333 0 0.4996629076494322 0.018356980125145292 0
          -0.4557502946675157 0.20564938344296738 0 0.3722107799439083 0.3338549614631292 0
          0.4987881149027151 0.03479103953313132 0 -0.43643567516702786 -0.24397520661227148 0
          0.22383296013120044 0.44710044280777045 0 -0.46790832595598464 0.17624357719096614 0
          -0.3300839145174186 0.37555906243473547 0 0.33693667453549403 0.36942343909525094 0
          0.05204383266278883 -0.4972840631688971 0 0.08981487293912326 0.4918671452729173 0
          0.2933788936386619 0.4048812477348818 0 0.04669983668713611 -0.4978143481795144 0
          <InformationKey name="L2_NORM_RANGE" location="vtkDataArray" length="2">
            <Value index="0">
              0.5
            </Value>
            <Value index="1">
              0.5
            </Value>
          </InformationKey>
        </DataArray>
        <DataArray type="Float64" Name="radius" format="ascii" RangeMin="1" RangeMax="1">
          1 1 1 1 1 1
          1 1 1 1 1 1
          1 1 1 1 1 1
          1 1 1 1 1 1
          1 1 1 1 1 1
          1 1 1 1 1 1
          1 1 1 1 1 1
          1 1 1 1 1 1
          1 1 1 1 1 1
          1 1 1 1 1 1
          1 1 1 1 1 1
          1 1 1 1 1 1
          1 1 1 1 1 1
          1 1 1 1 1 1
          1 1 1 1 1 1
          1 1 1 1 1 1
          1 1 1 1 1 1
          1 1 1 1 1 1
          1 1 1 1 1 1
          1 1 1 1 1 1
          1 1 1 1 1 1
          1 1 1 1 1 1
          1 1 1 1 1 1
          1 1 1 1 1 1
          1 1 1 1 1 1
          1 1 1 1
        </DataArray>
      </PointData>
      <CellData>
      </CellData>
      <Points>
        <DataArray type="Float32" Name="Points" NumberOfComponents="3" format="ascii" RangeMin="2.183212421401378" RangeMax="67.94969752758423">
          -36.829078674316406 33.83344268798828 0 47.22704315185547 -27.708526611328125 0
          -19.046308517456055 4.467676639556885 0 -31.11537742614746 49.22430419921875 0
          49.465267181396484 46.58700180053711 0 22.832284927368164 48.508670806884766 0
          -39.07918930053711 29.622236251831055 0 -20.271936416625977 -49.82984161376953 0
          -38.3560905456543 13.696037292480469 0 37.60696029663086 0.3327380120754242 0
          29.80586814880371 -13.591660499572754 0 -28.713829040527344 18.21660041809082 0
          -10.346704483032227 23.9987735748291 0 -2.7599189281463623 -7.923330783843994 0
          -32.66263198852539 -19.419740676879883 0 29.655054092407227 -18.748607635498047 0
          37.37166976928711 -35.282718658447266 0 49.336402893066406 32.06132125854492 0
          -37.52874755859375 26.23307991027832 0 -1.08550226688385 15.78478717803955 0
          -37.61318588256836 -29.20884895324707 0 -44.9292106628418 -46.25643539428711 0
          -9.00778865814209 -3.977248430252075 0 -0.9644498825073242 29.654743194580078 0
          42.22691345214844 30.686405181884766 0 20.927034378051758 -49.62965393066406 0
          20.848529815673828 14.135101318359375 0 -4.353383541107178 27.286298751831055 0
          7.437082290649414 37.97682189941406 0 30.920738220214844 -47.82274627685547 0
          32.120887756347656 32.21603012084961 0 43.68705749511719 -8.589993476867676 0
          -7.950368881225586 7.987703323364258 0 -34.117530822753906 26.086496353149414 0
          -26.393497467041016 30.80451011657715 0 49.18568801879883 -17.002647399902344 0
          -20.29471778869629 -48.655418395996094 0 -28.653467178344727 40.603031158447266 0
          34.7435417175293 45.614505767822266 0 27.83733367919922 49.13561248779297 0
          -43.24418640136719 29.444425582885742 0 9.210074424743652 23.24551010131836 0
          19.3813419342041 18.133249282836914 0 -10.648796081542969 5.926445484161377 0
          -29.384048461914062 2.399275064468384 0 -9.588249206542969 -15.01544189453125 0
          9.850774765014648 -14.084986686706543 0 46.549774169921875 -34.4476203918457 0
          -10.6085205078125 -11.204487800598145 0 22.67985725402832 -11.256892204284668 0
          42.80956268310547 -5.987570762634277 0 35.58369827270508 11.832099914550781 0
          -37.60978698730469 -2.520308017730713 0 -15.949138641357422 2.8951900005340576 0
          21.659669876098633 48.80104064941406 0 22.032329559326172 41.462703704833984 0
          0.7284291386604309 5.835295677185059 0 0.348244309425354 -3.940974473953247 0
          4.536089897155762 -5.366016387939453 0 35.37516784667969 10.507562637329102 0
          0.017100095748901367 47.442108154296875 0 -46.82941818237305 47.91814422607422 0
          -13.742977142333984 17.75443458557129 0 -14.828567504882812 35.41679763793945 0
          -45.378238677978516 15.750935554504395 0 25.0601863861084 -36.58909225463867 0
          48.53642272949219 -40.27409744262695 0 -22.151622772216797 30.397197723388672 0
          -42.2746696472168 12.653843879699707 0 -49.65275955200195 18.100154876708984 0
          3.331873655319214 -6.001657009124756 0 -30.007854461669922 -35.90888595581055 0
          -11.625763893127441 26.68825912475586 0 -45.845523834228516 -24.833391189575195 0
          1.0224385261535645 32.6933479309082 0 48.139381408691406 32.33926773071289 0
          -19.732431411743164 -44.44386672973633 0 -24.801393508911133 3.8814337253570557 0
          38.61369323730469 -15.601486206054688 0 -47.13520050048828 -33.74021911621094 0
          38.00059127807617 -29.134172439575195 0 -23.105487823486328 -0.8601287007331848 0
          -27.50731658935547 -0.5332489609718323 0 44.807376861572266 15.187746047973633 0
          25.938982009887695 -6.804050922393799 0 5.060571670532227 -44.631351470947266 0
          -17.38908576965332 -9.554512023925781 0 40.900978088378906 31.143571853637695 0
          -24.236125946044922 -36.54832458496094 0 -0.9317372441291809 -11.603763580322266 0
          21.43947982788086 -21.351123809814453 0 12.015144348144531 31.0507869720459 0
          -19.14234733581543 -12.048379898071289 0 -15.637934684753418 31.11952018737793 0
          17.146188735961914 -12.219348907470703 0 -4.389916896820068 -19.86566734313965 0
          40.86045837402344 -1.2868086099624634 0 25.417266845703125 -39.1160774230957 0
          -10.559741020202637 37.1451530456543 0 -14.012560844421387 41.79673385620117 0
          5.030404090881348 -35.93461608886719 0 -30.019868850708008 45.41794204711914 0
          49.22810745239258 -26.147947311401367 0 -48.637142181396484 -11.148582458496094 0
          27.89434242248535 -2.542992115020752 0 3.8174588680267334 -48.29385757446289 0
          39.97352600097656 -30.1214542388916 0 38.68711853027344 -5.629539966583252 0
          -35.048065185546875 -25.899456024169922 0 29.86223793029785 -3.058173894882202 0
          -41.49656295776367 14.237338066101074 0 13.59864330291748 8.208942413330078 0
          22.98339080810547 -14.591835021972656 0 18.21224594116211 21.070087432861328 0
          -33.68434143066406 -36.751651763916016 0 -5.099886894226074 -46.04747009277344 0
          29.702293395996094 -33.26597595214844 0 33.433223724365234 -17.337200164794922 0
          15.561525344848633 -8.11302375793457 0 28.09096336364746 -38.76160430908203 0