<?xml version="1.0"?>
<VTKFile type="PolyData" version="0.1" byte_order="LittleEndian" header_type="UInt32" compressor="vtkZLibDataCompressor">
  <PolyData>
    <Piece NumberOfPoints="154" NumberOfVerts="0" NumberOfLines="0" NumberOfStrips="0" NumberOfPolys="0">
      <PointData>
        <DataArray type="Int32" Name="id" format="ascii" RangeMin="0" RangeMax="153">
          0 1 2 3 4 5
          6 7 8 9 10 11
          12 13 14 15 16 17
          18 19 20 21 22 23
          24 25 26 27 28 29
          30 31 32 33 34 35
          36 37 38 39 40 41
          42 43 44 45 46 47
          48 49 50 51 52 53
          54 55 56 57 58 59
          60 61 62 63 64 65
          66 67 68 69 70 71
          72 73 74 75 76 77
          78 79 80 81 82 83
          84 85 86 87 88 89
          90 91 92 93 94 95
          96 97 98 99 100 101
          102 103 104 105 106 107
          108 109 110 111 112 113
          114 115 116 117 118 119
          120 121 122 123 124 125
          126 127 128 129 130 131
          132 133 134 135 136 137
          138 139 140 141 142 143
          144 145 146 147 148 149
          150 151 152 153
        </DataArray>
        <DataArray type="Float64" Name="director" NumberOfComponents="3" format="ascii" RangeMin="0.9999999999999999" RangeMax="1">
          -0.8762975921152961 -0.4817702046130854 0 0.08915651252905299 -0.9960176284954282 0
          -0.30143012873673203 -0.9534882681447933 0 -0.010861400932265251 0.9999410132451757 0
          -0.2935428833329078 0.9559459062335081 0 0.9240469704461818 0.38227895104129556 0
          0.999317625695105 -0.03693620141674233 0 0.8961487246757067 0.44375383182808054 0
          0.9354606381554926 0.353430890644435 0 -0.47964139119600907 -0.8774646066090398 0
          -0.8283026679284377 0.5602809030322489 0 -0.9963034941289598 -0.08590312908402004 0
          0.11957713398380515 -0.9928249135815534 0 -0.135772424833884 0.9907400509996188 0
          0.8186424386381335 0.5743035413965423 0 0.9385293844489482 0.34519935475878066 0
          -0.7802699539425021 -0.6254428822638928 0 -0.924726974636635 0.3806310843577757 0
          0.8444219688528974 -0.5356785776177692 0 -0.9969433536979353 -0.07812777686273673 0
          0.8174906304661255 0.5759418973300143 0 0.8753364951163577 -0.483514240035814 0
          -0.6981368303556891 -0.7159643609153404 0 0.7323539529522436 0.680924142320731 0
          -0.9056236598364119 -0.4240822877042885 0 -0.6009495205275116 0.7992869783611852 0
          0.9767922696129717 -0.21418884663852022 0 0.9799213451731008 -0.19938444591828247 0
          -0.9119201895733812 -0.4103676008756644 0 -0.15860859719340734 -0.9873415381195807 0
          0.6415402904158511 0.7670893401509015 0 -0.9992532425873255 0.03863880405389904 0
          -0.9580334334033445 0.28665648515496667 0 0.14268712260633556 0.989767844013092 0
          0.9055620933198079 -0.42421373756898495 0 0.3885848185912759 0.9214129577775565 0
          0.5410272815492577 0.8410050419702728 0 -0.1145561813069073 -0.9934167712115489 0
          -0.9968154812887027 -0.07974268783513662 0 0.890082833698572 -0.45579880337175105 0
          -0.08393097997541772 0.9964715703924353 0 0.6367253651441375 -0.7710906622324413 0
          0.6488871328944069 -0.7608846750750579 0 -0.9986851848987188 0.05126306139718648 0
          0.10226263931732767 0.9947574340510627 0 -0.693518651260946 0.7204386721666171 0
          0.8079051107982959 -0.5893125927264692 0 -0.5149253489229938 0.8572350232208977 0
          -0.3533308514734936 -0.9354984283241827 0 -0.9729195234633825 0.23114411276038294 0
          0.5842901953100385 -0.8115448032392033 0 0.8100132619067478 -0.5864115581527962 0
          0.8291169946151928 -0.5590751373834024 0 0.3587715488056143 0.9334253991442598 0
          -0.4830199618648949 0.8756093400826852 0 -0.97796650546626 0.2087618599891076 0
          -0.8635579564255422 -0.5042495968210003 0 0.48765775866876787 0.873034884990373 0
          -0.3843478468788172 -0.9231883516377453 0 0.7086799621198455 -0.7055300924055715 0
          -0.4830247226039364 -0.8756067138581055 0 -0.6634141959605641 -0.7482523669177388 0
          -0.5891624113630702 -0.8080146366476615 0 0.8832191117573684 -0.4689605533800526 0
          0.785950814926468 -0.6182890234481127 0 -0.9710319363469 -0.23894974072886094 0
          0.9383184079177065 -0.34577241845291906 0 -0.8751580581722822 -0.48383713501148334 0
          -0.8590067163370637 0.5119643164204076 0 0.9945651245682525 -0.10411634354190705 0
          -0.076083865263199 0.9971014218456472 0 0.06784373149448068 0.9976959597477103 0
          0.09751707528395787 0.9952338519303204 0 0.5478988460987699 0.8365445920234237 0
          -0.2286800239350347 -0.9735016418337834 0 -0.9610190711745409 -0.2764820877359378 0
          -0.89108567251192 -0.45383512892236455 0 0.8348344815012954 -0.5505010340557621 0
          -0.578645146276409 0.8155794226749185 0 0.46569597007444674 -0.8849447798910506 0
          -0.7653591278404934 0.6436034535575762 0 0.8670813498534337 -0.4981665712754595 0
          -0.4756140732286894 -0.8796540532202503 0 -0.9779066188657777 -0.2090422081267382 0
          -0.9617773450209084 -0.2738326835944396 0 0.3087961956598786 0.951128229812356 0
          -0.8951978945047945 -0.44566885652262356 0 0.5503569019157115 -0.8349295063140001 0
          0.6727434044667044 -0.7398758759052414 0 -0.33134555152651357 0.943509472916722 0
          -0.4026891870908012 -0.9153367787869936 0 -0.8523751095723139 -0.5229308487568751 0
          -0.9215479850085501 -0.3882644863062822 0 0.13028809306168 -0.9914761786378687 0
          0.29608320163776247 0.9551621525730236 0 0.9969699689516032 -0.07778740906238835 0
          -0.8483285563090239 0.5294701696513668 0 0.8882080518556761 -0.45944146157997595 0
          -0.8990638637506289 -0.43781750638569805 0 0.7370087954487992 -0.6758831522024425 0
          -0.5396728062224494 0.841874849501983 0 0.6752376628662726 -0.7376002295599521 0
          -0.6927063738854423 -0.7212197165763577 0 0.8158194999948482 -0.5783066171402121 0
          -0.7477651337712923 0.663963330851939 0 -0.9947011386156468 0.10280877801401934 0
          0.9583876219270813 0.28547007923240203 0 0.7566016152849075 -0.6538761318080579 0
          0.5279825194504643 -0.8492552379318835 0 -0.9638343630217437 -0.26650200873252233 0
          -0.49424658551979905 0.8693217544166372 0 -0.4017342111526373 -0.9157563123394609 0
          0.4353776400255793 -0.900247916168517 0 0.9032691837459803 -0.4290743312001669 0
          0.40244124066075526 -0.9154458191588577 0 0.004259483847597801 -0.9999909283575287 0
          -0.6348321436997103 -0.772650082071846 0 -0.8061981942582334 -0.5916455624567498 0
          -0.9427454607672087 0.33351311249008403 0 0.29310892927469356 -0.9560790529968967 0
          0.9065584537779572 0.4220802884330415 0 0.5396041617346936 -0.8419188492002057 0
          0.3827478572315998 -0.9238528442260807 0 -0.08527972340064245 0.9963570488417843 0
          0.7348810104889213 -0.6781960634084969 0 -0.3309202360856375 -0.9436587292814209 0
          -0.9865208705530427 -0.16363548503691577 0 0.844507974073484 -0.5355429784119101 0
          -0.8715162528831957 0.490366618929586 0 -0.9859974621054932 0.16676032118440637 0
          0.24946813419603353 0.96838300791616 0 0.5838812327444237 0.8118390887662728 0
          0.7454238584766555 0.666590782424851 0 -0.9388253736977038 0.3443935506094254 0
          -0.6592309356424985 0.7519405385347409 0 -0.9748472494333205 -0.22287404575744 0
          0.31907070762682943 0.9477309130415207 0 0.8271188099215743 0.5620271116893906 0
          -0.9419851737732813 -0.33565448364549094 0 0.6744765463712621 0.7382962741305787 0
          0.30444807018496417 -0.9525289352878742 0 0.9877702890567964 -0.15591618279272007 0
          -0.9505982321766967 0.31042390530134606 0 0.9507840602903231 0.3098542733251346 0
          0.9875689167715742 0.15718662356135632 0 -0.6695368704119176 -0.7427788225030484 0
          0.25882130704148476 0.965925220201511 0 -0.9065775154104431 0.4220393447917241 0
          -0.7941346380709109 0.6077418667625124 0 0.5468115453070145 0.837255715966726 0
          0.5343971454697487 -0.8452335126542158 0 0.42877244181087126 0.9034125265589044 0
          0.6239705004568324 0.7814478962539025 0 0.2857134663651535 -0.9583150917822427 0
          <InformationKey name="L2_NORM_RANGE" location="vtkDataArray" length="2">
            <Value index="0">
              1
            </Value>
            <Value index="1">
              1
            </Value>
          </InformationKey>
        </DataArray>
        <DataArray type="Float64" Name="velocity" NumberOfComponents="3" format="ascii" RangeMin="2.98391528750295" RangeMax="65.61664053985334">
          20.472372037415383 -30.489259884928693 0 -7.778161120144524 43.605506408926914 0
          -35.778279556590725 14.318100471258902 0 -2.7267860528004704 -6.306708942777526 0
          -25.56803597993237 0.5919415230237348 0 40.69440930810454 -42.34960265147567 0
          21.390392053252754 11.720491675449018 0 -31.091580543867785 -10.301819378431787 0
          -22.233594277397 35.80993014386058 0 40.8936574712134 11.727908496204755 0
          -31.918129728714472 1.502371966558826 0 32.46317064138093 -14.067556233339687 0
          31.61170207931397 -20.66117562390716 0 -32.788218903188394 -0.7210412736466054 0
          -30.467523066969363 36.43074923190564 0 -29.58028331655805 11.627227611362315 0
          37.80505508071815 -10.753091333426255 0 44.65772551607054 -33.330173144632525 0
          47.18774005931614 6.396489460552942 0 9.836891189866492 -36.87781496106794 0
          6.677739541459459 5.438027088135769 0 -18.951003944933063 -37.93510690561732 0
          23.77908201111339 -25.727634747998636 0 32.285914726045576 -31.45240287607238 0
          -18.732306147503376 38.172541468590836 0 17.42129460906331 23.929755673071398 0
          -43.74567596165927 -36.843843838172035 0 -41.00470913383489 -49.1685554695042 0
          -4.3489588147394045 13.430332075080756 0 2.9762992276979077 -0.21305715242312573 0
          -16.420210149222868 -24.717665071237764 0 -26.63245586108499 -32.68369682188443 0
          9.59810303037343 22.68931438280859 0 37.757309281314306 20.71597266757422 0
          -26.523439665569285 -2.200425364398683 0 -48.17882370239545 24.733119867345934 0
          15.472358145094617 -42.19330576503555 0 -2.7230899171649696 49.647506705142575 0
          3.209752212846098 39.943600631846664 0 27.290092728339346 -29.624030405099575 0
          40.710862227344634 -12.518743865476708 0 34.808888796398136 -17.330075407408792 0
          -17.326333983387784 15.921061981020685 0 8.676498234140595 -45.101679767889145 0
          26.99656655139428 -0.8247828969564566 0 -1.181598492863479 -7.087342925864128 0
          -10.527228461045638 27.645380145270124 0 47.47543864880045 24.850515939083976 0
          13.45020038299144 -42.781974126121774 0 13.33632968921519 2.89206325620421 0
          -20.383234879262602 -17.467213088655853 0 13.111992425538233 49.45054225750374 0
          1.6047826830209004 22.445391370448775 0 -25.442525168919026 -16.766088433362327 0
          24.860911549332883 18.296648546241826 0 18.127137052491975 -42.11576276898946 0
          -4.106371249565804 19.81468592825003 0 -43.2115168522386 -43.085994704941484 0
          2.7042817825837204 -23.795120132132308 0 -1.6624837545658195 -36.91945356486498 0
          -40.55592314206473 -37.96183180819797 0 46.98372058379586 25.62816454897687 0
          -23.182362140209666 22.4905983535036 0 -8.42374893276238 -2.5281598168396826 0
          -44.45585735866184 11.374414308737222 0 -0.9380815156004232 40.44748670579848 0
          43.5214270198436 41.82766196839604 0 -19.617472876146607 29.010177679462174 0
          -27.377259211045168 -5.104813753149479 0 1.0108912986547693 -26.93680745999526 0
          21.18807799653547 48.4452609761332 0 15.521324819791857 -22.733301715898534 0
          -3.0984436752635744 -49.699879474370995 0 -5.357606698271908 47.09441502974741 0
          -19.533649987483585 -28.48909553641595 0 -25.241492794096537 30.645102659141713 0
          -1.3628901407151872 -9.249808436218693 0 -28.437070584076316 4.0252086974848424 0
          22.302423751473526 -21.630608392707323 0 4.286209731170565 25.592468486596516 0
          -16.80227135673981 30.176297340482108 0 35.70724318896097 -48.51082997011254 0
          38.494266527440914 9.308694076898924 0 -41.37827709570729 42.48759424258512 0
          41.371957205314274 48.07567751376408 0 40.00221093710812 44.971458396046486 0
          43.45219546574209 -49.16757290067578 0 27.77940311086799 -47.40411222574361 0
          8.787704962513757 14.978077069606684 0 -17.176354508003442 -38.89206379839693 0
          -37.572734230027905 47.39150589914381 0 3.322947059262674 16.230028184641725 0
          20.82576325094061 -43.12614201683975 0 -29.404442159877867 -6.6570323329381935 0
          -48.88074135310182 -43.07374742736768 0 -15.693819004659524 -18.776991949103287 0
          49.2742614956165 -23.093566379026992 0 35.70662412955289 -14.438908494432013 0
          24.676827977366614 34.48562696853686 0 -28.28613766609157 46.49521791482232 0
          21.219265309149932 48.266786794162286 0 25.989900495501132 -30.673962513745963 0
          -14.741048879365302 -30.369965831724773 0 33.206792723445574 45.25947670903301 0
          26.73700517552618 36.1968809297727 0 -4.433626259916984 -16.731616061562868 0
          33.82599634129042 5.430878965379037 0 -37.91344272052366 -28.781627030961573 0
          -0.8760744559602713 -9.034520229977083 0 25.951148963832622 -14.29357740625877 0
          27.17860558051683 48.15404052238152 0 34.61617221348607 33.462162550860555 0
          -13.28055184508198 -44.93740558320786 0 47.55616001461492 34.25892934866374 0
          36.946038841117556 -42.45015674570037 0 -46.76239316488481 11.393180618063838 0
          23.568028568935404 11.552780427737098 0 16.263007945057282 45.12644264060411 0
          -23.411248530157515 41.93857265065735 0 -38.160345232049345 -18.69342940760771 0
          37.21153998486223 -26.635630373860984 0 30.80584946405935 5.653176675427417 0
          44.35923105765637 0.370346282237378 0 16.64168251311186 -34.7034267378138 0
          47.322877480901255 13.376690736606477 0 -32.1350217035443 -42.58571958176201 0
          -0.5025219679409361 28.59799073613067 0 -3.5320261053794297 38.30316610148137 0
          14.736889949280638 40.32409694969634 0 -49.402638529229115 19.356180838194604 0
          8.508964450503598 -39.46387075781778 0 49.03198966734128 -27.000797471280585 0
          -16.70921662991016 18.938285128010065 0 46.14207459237997 -27.3400906744995 0
          42.424140585792586 37.62461911345025 0 -6.825547086494495 -2.911259141055119 0
          6.210247997996007 33.76154121673389 0 -35.16911208657487 13.927818279591207 0
          49.5593687100304 13.93941034113417 0 -6.0481675260535965 -47.161165000275155 0
          -41.68490984500472 3.0367185203014984 0 28.200151364646487 23.664522522360798 0
          -30.983903256438072 -23.817273645282434 0 -4.775523168997552 -3.9973115200368454 0
          17.36371431475763 -32.304692769073746 0 -31.21691646176371 -40.35131875297581 0
          -17.61253928181918 -32.96735050248542 0 -47.52659271635095 33.064298464373394 0
          -25.51716157275273 -35.79649925661745 0 -34.4558032257712 -19.698927528483058 0
          -46.64276824331557 -9.071061809886274 0 28.312364537561464 -5.662808823633235 0
          -48.25117889494449 -21.421563451189467 0 45.139670111270334 -32.86849758057289 0
          <InformationKey name="L2_NORM_RANGE" location="vtkDataArray" length="2">
            <Value index="0">
              2.9839152875
            </Value>
            <Value index="1">
              65.61664054
            </Value>
          </InformationKey>
        </DataArray>
        <DataArray type="Float64" Name="force" NumberOfComponents="3" format="ascii" RangeMin="0.49999999999999994" RangeMax="0.5">
          -0.43814879605764806 -0.2408851023065427 0 0.044578256264526495 -0.4980088142477141 0
          -0.15071506436836601 -0.47674413407239663 0 -0.005430700466132626 0.49997050662258785 0
          -0.1467714416664539 0.47797295311675403 0 0.4620234852230909 0.19113947552064778 0
          0.4996588128475525 -0.018468100708371165 0 0.44807436233785336 0.22187691591404027 0
          0.4677303190777463 0.1767154453222175 0 -0.23982069559800454 -0.4387323033045199 0
          -0.4141513339642188 0.28014045151612443 0 -0.4981517470644799 -0.04295156454201002 0
          0.059788566991902575 -0.4964124567907767 0 -0.067886212416942 0.4953700254998094 0
          0.40932121931906673 0.28715177069827114 0 0.4692646922244741 0.17259967737939033 0
          -0.39013497697125105 -0.3127214411319464 0 -0.4623634873183175 0.19031554217888785 0
          0.4222109844264487 -0.2678392888088846 0 -0.49847167684896765 -0.03906388843136836 0
          0.40874531523306273 0.28797094866500716 0 0.43766824755817885 -0.241757120017907 0
          -0.34906841517784454 -0.3579821804576702 0 0.3661769764761218 0.3404620711603655 0
          -0.45281182991820595 -0.21204114385214426 0 -0.3004747602637558 0.3996434891805926 0
          0.48839613480648586 -0.10709442331926011 0 0.4899606725865504 -0.09969222295914124 0
          -0.4559600947866906 -0.2051838004378322 0 -0.07930429859670367 -0.49367076905979035 0
          0.32077014520792557 0.38354467007545073 0 -0.49962662129366275 0.01931940202694952 0
          -0.47901671670167223 0.14332824257748333 0 0.07134356130316778 0.494883922006546 0
          0.45278104665990393 -0.21210686878449247 0 0.19429240929563796 0.46070647888877825 0
          0.27051364077462886 0.4205025209851364 0 -0.05727809065345365 -0.49670838560577446 0
          -0.49840774064435134 -0.03987134391756831 0 0.445041416849286 -0.22789940168587552 0
          -0.04196548998770886 0.49823578519621764 0 0.31836268257206873 -0.38554533111622064 0
          0.32444356644720346 -0.38044233753752893 0 -0.4993425924493594 0.02563153069859324 0
          0.05113131965866383 0.4973787170255313 0 -0.346759325630473 0.36021933608330853 0
          0.40395255539914793 -0.2946562963632346 0 -0.2574626744614969 0.42861751161044886 0
          -0.1766654257367468 -0.46774921416209136 0 -0.48645976173169125 0.11557205638019147 0
          0.2921450976550192 -0.40577240161960165 0 0.4050066309533739 -0.2932057790763981 0
          0.4145584973075964 -0.2795375686917012 0 0.17938577440280715 0.4667126995721299 0
          -0.24150998093244744 0.4378046700413426 0 -0.48898325273313 0.1043809299945538 0
          -0.4317789782127711 -0.2521247984105002 0 0.24382887933438394 0.4365174424951865 0
          -0.1921739234394086 -0.46159417581887263 0 0.35433998105992276 -0.35276504620278576 0
          -0.2415123613019682 -0.43780335692905276 0 -0.33170709798028203 -0.3741261834588694 0
          -0.2945812056815351 -0.40400731832383074 0 0.4416095558786842 -0.2344802766900263 0
          0.392975407463234 -0.3091445117240563 0 -0.48551596817345 -0.11947487036443047 0
          0.46915920395885324 -0.17288620922645953 0 -0.4375790290861411 -0.24191856750574167 0
          -0.42950335816853186 0.2559821582102038 0 0.49728256228412626 -0.052058171770953524 0
          -0.0380419326315995 0.4985507109228236 0 0.03392186574724034 0.49884797987385515 0
          0.04875853764197893 0.4976169259651602 0 0.27394942304938497 0.41827229601171184 0
          -0.11434001196751735 -0.4867508209168917 0 -0.48050953558727044 -0.1382410438679689 0
          -0.44554283625596 -0.22691756446118228 0 0.4174172407506477 -0.27525051702788106 0
          -0.2893225731382045 0.4077897113374592 0 0.23284798503722337 -0.4424723899455253 0
          -0.3826795639202467 0.3218017267787881 0 0.43354067492671683 -0.24908328563772975 0
          -0.2378070366143447 -0.4398270266101251 0 -0.48895330943288884 -0.1045211040633691 0
          -0.4808886725104542 -0.1369163417972198 0 0.1543980978299393 0.475564114906178 0
          -0.44759894725239724 -0.22283442826131178 0 0.27517845095785576 -0.41746475315700005 0
          0.3363717022333522 -0.3699379379526207 0 -0.16567277576325679 0.471754736458361 0
          -0.2013445935454006 -0.4576683893934968 0 -0.42618755478615694 -0.26146542437843756 0
          -0.46077399250427503 -0.1941322431531411 0 0.06514404653084 -0.49573808931893437 0
          0.14804160081888124 0.4775810762865118 0 0.4984849844758016 -0.03889370453119417 0
          -0.42416427815451196 0.2647350848256834 0 0.44410402592783804 -0.22972073078998798 0
          -0.44953193187531443 -0.21890875319284903 0 0.3685043977243996 -0.3379415761012213 0
          -0.2698364031112247 0.4209374247509915 0 0.3376188314331363 -0.36880011477997604 0
          -0.34635318694272116 -0.3606098582881789 0 0.4079097499974241 -0.28915330857010607 0
          -0.37388256688564614 0.3319816654259695 0 -0.4973505693078234 0.05140438900700967 0
          0.47919381096354063 0.14273503961620101 0 0.3783008076424538 -0.32693806590402896 0
          0.26399125972523213 -0.42462761896594176 0 -0.4819171815108719 -0.13325100436626117 0
          -0.24712329275989953 0.4346608772083186 0 -0.20086710557631865 -0.45787815616973043 0
          0.21768882001278966 -0.4501239580842585 0 0.45163459187299015 -0.21453716560008346 0
          0.20122062033037763 -0.45772290957942885 0 0.0021297419237989003 -0.49999546417876434 0
          -0.31741607184985515 -0.386325041035923 0 -0.4030990971291167 -0.2958227812283749 0
          -0.47137273038360433 0.16675655624504201 0 0.14655446463734678 -0.47803952649844833 0
          0.4532792268889786 0.21104014421652076 0 0.2698020808673468 -0.4209594246001028 0
          0.1913739286157999 -0.46192642211304036 0 -0.042639861700321226 0.49817852442089217 0
          0.36744050524446065 -0.33909803170424846 0 -0.16546011804281874 -0.47182936464071046 0
          -0.49326043527652136 -0.08181774251845789 0 0.422253987036742 -0.26777148920595506 0
          -0.43575812644159784 0.245183309464793 0 -0.4929987310527466 0.08338016059220318 0
          0.12473406709801677 0.48419150395808 0 0.29194061637221186 0.4059195443831364 0
          0.37271192923832774 0.3332953912124255 0 -0.4694126868488519 0.1721967753047127 0
          -0.32961546782124923 0.3759702692673704 0 -0.48742362471666023 -0.11143702287872 0
          0.15953535381341472 0.47386545652076034 0 0.41355940496078714 0.2810135558446953 0
          -0.47099258688664064 -0.16782724182274547 0 0.33723827318563104 0.3691481370652894 0
          0.15222403509248209 -0.4762644676439371 0 0.4938851445283982 -0.07795809139636004 0
          -0.47529911608834835 0.15521195265067303 0 0.47539203014516157 0.1549271366625673 0
          0.4937844583857871 0.07859331178067816 0 -0.3347684352059588 -0.3713894112515242 0
          0.12941065352074238 0.4829626101007555 0 -0.45328875770522153 0.21101967239586206 0
          -0.39706731903545545 0.3038709333812562 0 0.27340577265350724 0.418627857983363 0
          0.26719857273487435 -0.4226167563271079 0 0.21438622090543563 0.4517062632794522 0
          0.3119852502284162 0.39072394812695127 0 0.14285673318257675 -0.47915754589112136 0
          <InformationKey name="L2_NORM_RANGE" location="vtkDataArray" length="2">
            <Value index="0">
              0.5
            </Value>
            <Value index="1">
              0.5
            </Value>
          </InformationKey>
        </DataArray>
        <DataArray type="Float64" Name="radius" format="ascii" RangeMin="1" RangeMax="1">
          1 1 1 1 1 1
          1 1 1 1 1 1
          1 1 1 1 1 1
          1 1 1 1 1 1
          1 1 1 1 1 1
          1 1 1 1 1 1
          1 1 1 1 1 1
          1 1 1 1 1 1
          1 1 1 1 1 1
          1 1 1 1 1 1
          1 1 1 1 1 1
          1 1 1 1 1 1
          1 1 1 1 1 1
          1 1 1 1 1 1
          1 1 1 1 1 1
          1 1 1 1 1 1
          1 1 1 1 1 1
          1 1 1 1 1 1
          1 1 1 1 1 1
          1 1 1 1 1 1
          1 1 1 1 1 1
          1 1 1 1 1 1
          1 1 1 1 1 1
          1 1 1 1 1 1
          1 1 1 1 1 1
          1 1 1 1
        </DataArray>
      </PointData>
      <CellData>
      </CellData>
      <Points>
        <DataArray type="Float32" Name="Points" NumberOfComponents="3" format="ascii" RangeMin="1.8242882514602847" RangeMax="68.18596117982403">
          -36.603172302246094 33.555625915527344 0 47.08061981201172 -27.804147720336914 0
          -19.224885940551758 4.680569171905518 0 -31.117647171020508 49.325340270996094 0
          49.614166259765625 46.773494720458984 0 22.67807960510254 48.212520599365234 0
          -39.00811767578125 29.74155044555664 0 -20.21035385131836 -49.462623596191406 0
          -38.60009765625 13.95143985748291 0 37.827781677246094 0.3604828119277954 0
          29.703128814697266 -13.867483139038086 0 -28.888025283813477 18.14737892150879 0
          -10.02939224243164 24.0041561126709 0 -2.6211087703704834 -7.786562919616699 0
          -32.63724136352539 -19.686607360839844 0 29.65993309020996 -18.37686538696289 0
          37.28830337524414 -35.260108947753906 0 49.37668991088867 32.06550598144531 0
          -37.56248092651367 26.421554565429688 0 -0.945297122001648 16.363210678100586 0
          -37.42189407348633 -28.92155647277832 0 -45.03432083129883 -46.35225296020508 0
          -9.07337474822998 -4.202920913696289 0 -1.1889400482177734 29.46723175048828 0
          42.11688995361328 30.736860275268555 0 20.593467712402344 -49.616905212402344 0
          20.859786987304688 14.304186820983887 0 -4.497591972351074 27.311796188354492 0
          7.456961631774902 37.73424530029297 0 30.93573570251465 -48.29779052734375 0
          32.17202377319336 32.042022705078125 0 43.968509674072266 -8.907638549804688 0
          -7.715546607971191 8.112519264221191 0 -34.21995544433594 26.17817497253418 0
          -26.726394653320312 30.92980194091797 0 48.85585403442383 -16.69993782043457 0
          -20.011152267456055 -48.704708099365234 0 -28.35095977783203 40.699642181396484 0
          34.97148513793945 45.588294982910156 0 27.999608993530273 48.67734909057617 0
          -43.183712005615234 29.316617965698242 0 9.339584350585938 23.296539306640625 0
          19.462831497192383 17.97707176208496 0 -10.752537727355957 6.215167999267578 0
          -29.271562576293945 2.6991677284240723 0 -9.689253807067871 -14.734127044677734 0
          9.381967544555664 -14.455533981323242 0 46.487735748291016 -34.565616607666016 0
          -10.554203987121582 -11.294434547424316 0 22.757795333862305 -11.16869831085205 0
          42.80968475341797 -6.301462173461914 0 36.229331970214844 11.946195602416992 0
          -37.92597961425781 -2.6755213737487793 0 -16.076290130615234 2.975311517715454 0
          21.590456008911133 48.88723373413086 0 21.990877151489258 41.30873107910156 0
          0.39867210388183594 5.7397918701171875 0 0.39959773421287537 -3.7291905879974365 0
          4.690018177032471 -5.284694194793701 0 35.45423889160156 10.355669975280762 0
          0.06700354069471359 47.993404388427734 0 -46.67330551147461 47.65044021606445 0
          -13.662797927856445 17.888248443603516 0 -15.339617729187012 35.618873596191406 0
          -45.46528625488281 16.063766479492188 0 24.966285705566406 -36.76874542236328 0
          48.263832092285156 -40.56142044067383 0 -21.764177322387695 30.323455810546875 0
          -42.37416076660156 12.682266235351562 0 -49.16615295410156 18.06594467163086 0
          3.319192409515381 -6.089623928070068 0 -30.05752182006836 -36.18206024169922 0
          -11.731069564819336 26.306020736694336 0 -45.862754821777344 -24.599609375 0
          0.4927407205104828 32.490570068359375 0 48.29046630859375 32.42166519165039 0
          -19.68285369873047 -45.09510040283203 0 -25.1154727935791 4.2947893142700195 0
          38.67605209350586 -15.691630363464355 0 -46.8279914855957 -33.67455291748047 0
          37.6873664855957 -28.982969284057617 0 -22.87570571899414 -0.756901741027832 0
          -27.685260772705078 -1.0425561666488647 0 45.4431037902832 15.285094261169434 0
          25.730104446411133 -6.454255104064941 0 5.281280517578125 -44.6325569152832 0
          -17.66707992553711 -9.5943603515625 0 40.8001708984375 30.872533798217773 0
          -24.089879989624023 -36.9509162902832 0 -0.6978842616081238 -12.262398719787598 0
          21.822479248046875 -21.366701126098633 0 12.342700958251953 31.106555938720703 0
          -18.785781860351562 -11.530060768127441 0 -15.590631484985352 31.614152908325195 0
          16.867061614990234 -12.098334312438965 0 -4.0095601081848145 -19.688337326049805 0
          41.052494049072266 -1.0873743295669556 0 25.6530704498291 -39.22386169433594 0
          -10.638498306274414 36.95988464355469 0 -13.933635711669922 41.80810546875 0
          4.425374507904053 -36.03253173828125 0 -29.999876022338867 44.89275360107422 0
          49.0273551940918 -26.04743766784668 0 -48.33254623413086 -11.095376968383789 0
          27.916364669799805 -2.238750696182251 0 4.062955379486084 -48.15960693359375 0
          39.961734771728516 -30.5565242767334 0 38.62723159790039 -5.975849628448486 0
          -35.084293365478516 -26.1173152923584 0 29.998687744140625 -2.7129786014556885 0
          -41.029380798339844 14.419699668884277 0 13.357295989990234 8.523270606994629 0
          22.681224822998047 -14.565807342529297 0 18.137561798095703 20.801780700683594 0
          -33.65047073364258 -36.704647064208984 0 -4.868488311767578 -45.835609436035156 0
          29.679365158081055 -33.24955368041992 0 33.210575103759766 -17.409669876098633 0
          15.644739151000977 -8.145907402038574 0 28.172155380249023 -38.85597610473633 0