<?xml version="1.0"?>
<VTKFile type="PolyData" version="0.1" byte_order="LittleEndian" header_type="UInt32" compressor="vtkZLibDataCompressor">
  <PolyData>
    <Piece NumberOfPoints="154" NumberOfVerts="0" NumberOfLines="0" NumberOfStrips="0" NumberOfPolys="0">
      <PointData>
        <DataArray type="Int32" Name="id" format="ascii" RangeMin="0" RangeMax="153">
          0 1 2 3 4 5
          6 7 8 9 10 11
          12 13 14 15 16 17
          18 19 20 21 22 23
          24 25 26 27 28 29
          30 31 32 33 34 35
          36 37 38 39 40 41
          42 43 44 45 46 47
          48 49 50 51 52 53
          54 55 56 57 58 59
          60 61 62 63 64 65
          66 67 68 69 70 71
          72 73 74 75 76 77
          78 79 80 81 82 83
          84 85 86 87 88 89
          90 91 92 93 94 95
          96 97 98 99 100 101
          102 103 104 105 106 107
          108 109 110 111 112 113
          114 115 116 117 118 119
          120 121 122 123 124 125
          126 127 128 129 130 131
          132 133 134 135 136 137
          138 139 140 141 142 143
          144 145 146 147 148 149
          150 151 152 153
        </DataArray>
        <DataArray type="Float64" Name="director" NumberOfComponents="3" format="ascii" RangeMin="0.9999999999999999" RangeMax="1">
          -0.9311981383884647 -0.36451341136075893 0 -0.16723660509182156 -0.9859167905646815 0
          -0.5284812436969359 -0.8489449776402118 0 0.02803182709335818 0.9996070311226347 0
          -0.7164140062814344 0.6976754056176732 0 0.8855843470822434 0.4644785939124823 0
          0.999969007745467 0.007872963136332402 0 0.8754581603325876 0.483293916273608 0
          0.9675302022391249 -0.2527554307134036 0 -0.5446683127664173 -0.8386515540247834 0
          -0.8187876940789406 0.5740964309459615 0 -0.984275270844918 -0.1766414198402044 0
          -0.009662762078443925 -0.9999533144247362 0 -0.5344049903218981 0.8452285527116628 0
          0.9778104563573752 0.2094915545748364 0 0.981496292179166 0.19148114381982692 0
          -0.766708932713839 -0.6419948695252993 0 -0.9985474603187791 -0.05387921204802884 0
          0.9829468251991069 -0.18389001830169135 0 -0.8343447644145322 -0.5512429719225985 0
          0.8784310813744126 0.47786905662051404 0 0.7190659364864674 -0.6949418529523457 0
          -0.867819729838666 -0.4968791769663373 0 0.7683094812727483 0.6400785428261131 0
          -0.9080962994087538 -0.41876140103897713 0 -0.7296361376182563 0.6838355845387932 0
          0.9208239298407938 -0.3899785766328159 0 0.9941453146999042 0.10805134548087998 0
          -0.9968176485345345 0.07971559176272403 0 -0.3000456771398205 -0.9539248354192832 0
          0.4613891355611351 0.8871978728480747 0 -0.9891424199044243 -0.14696010732719128 0
          -0.9999650215136058 0.008363955361787023 0 0.39138245520959347 0.920228109630493 0
          0.9176984996916882 -0.39727756501421607 0 -0.09605752428328206 0.9953757843289973 0
          0.6322330946312817 0.7747782354022038 0 -0.5612164158370482 -0.8276690972816476 0
          -0.9387205896944127 -0.344679060117922 0 0.9999579001661961 0.00917594110769022 0
          -0.5424755550029018 0.8400715875592352 0 0.6174209912493369 -0.7866329001285709 0
          0.6494785098450034 -0.7603799479533332 0 -0.9463431527154044 -0.32316348387258853 0
          -0.03341877386642354 0.9994414367801971 0 -0.6709397293914606 0.7415118876485485 0
          0.8353773360813168 -0.5496769108864612 0 -0.5759152479974493 0.8175094049147303 0
          -0.05687617210631033 -0.9983812403318351 0 -0.8494690680201182 0.5276384202055721 0
          0.568199764264697 -0.8228906536652016 0 0.84236961718055 -0.5389002023112384 0
          0.9800959770665993 -0.19852424471048377 0 0.19451961029839074 0.9808986294257741 0
          -0.2706643187750352 0.9626737903059613 0 -0.9985907174678986 0.05307145171320861 0
          -0.8870928889762802 -0.4615909513061504 0 0.42288493264480875 0.9061833885820219 0
          -0.20008508504742856 -0.9797785253523182 0 0.8427040906626498 -0.5383770199223183 0
          -0.8388645980817903 -0.5443401382270799 0 -0.33664459777710437 -0.9416317830168498 0
          -0.9165781237986423 -0.39985565267201206 0 0.6483871002375992 -0.7613108223619822 0
          0.736264917836388 -0.6766934097236184 0 -0.997139248645901 0.07558649885983701 0
          0.9995725451347727 -0.02923571467901443 0 -0.9241979128234681 -0.3819138881118953 0
          -0.690238463025305 0.7235819678242851 0 0.9917307976467192 0.12833559521427423 0
          -0.2291629458909859 0.973388074834783 0 -0.15670212715545898 0.987645909901395 0
          0.07188744066983956 0.9974127510082976 0 -0.13235559247548442 0.9912022987970032 0
          0.08392875678164381 -0.9964717576454878 0 -0.9646245442102516 0.263627556805362 0
          -0.9752216734168281 -0.22122994304135557 0 0.48692901232505703 -0.8734415475326007 0
          -0.33031526686122703 0.9438706608844224 0 0.43518109974293057 -0.9003429404546545 0
          -0.507984887418159 0.8613659815402279 0 0.904154518216133 -0.42720557953911636 0
          -0.6856591354764203 -0.7279227637172284 0 -0.9469213004368348 -0.32146547369665335 0
          -0.9580422326956691 -0.28662707543338856 0 0.4389292481628322 0.8985216275122213 0
          -0.9879626239746675 -0.15469277174157092 0 0.22094708808271277 -0.9752857961991295 0
          0.9991940325876243 -0.040140817645902827 0 -0.05363881385916478 0.998560402603559 0
          -0.38465202195151604 -0.9230616566668829 0 -0.7442116752549038 -0.6679438467523221 0
          -0.9920907930966533 -0.12552234164822446 0 0.3439162166474606 -0.9390003386191599 0
          0.3716299786589891 0.928380934186996 0 0.9450900244093092 0.32681010657874593 0
          -0.935240315666302 0.3540134912011064 0 0.9984373246458296 -0.055882991635008185 0
          -0.9529694887296057 -0.30306625274093746 0 0.8791480769151543 -0.4765486951575736 0
          -0.6991527099663022 0.7149723687995052 0 0.7603985582487445 -0.6494567211240722 0
          -0.708905834683978 -0.7053031387644695 0 0.9827571698643903 -0.18490090610955345 0
          -0.7944103650218836 0.6073814056635235 0 -0.9633524986268633 0.2682386314261601 0
          0.7749430641252185 0.6320310493672106 0 0.712110430094199 -0.7020674720787561 0
          0.3012767385904643 -0.9535367464257961 0 -0.9701455238788136 -0.24252352978196215 0
          0.047881522476146486 0.9988530221235586 0 -0.09353314013412975 -0.995616166851789 0
          0.43874882207667 -0.898609743507344 0 0.8678923401080325 -0.49675233867773905 0
          0.06831479458553799 -0.9976638155414557 0 0.03546964049766134 -0.9993707543264245 0
          -0.6619393094674719 -0.7495574364795045 0 -0.8384741037862713 -0.5449414438999929 0
          -0.739633272498292 0.6730101204391115 0 0.642251344848141 -0.7664941030697852 0
          0.9756629181556972 0.21927578556673627 0 0.3809741031914793 -0.9245857086811629 0
          0.5479237512167311 -0.8365282797685837 0 0.0636662428603269 0.9979712468403336 0
          0.7273496174389038 -0.6862671010703342 0 -0.4831610917466341 -0.8755314725480751 0
          -0.9973843074544482 0.07228100195494548 0 0.7918577261755579 -0.6107056095174459 0
          -0.5400595192030265 0.8416268268764939 0 -0.9331128022659471 0.3595837847392338 0
          0.6471305149274277 0.762379234141226 0 0.7098681156136571 0.7043346210680798 0
          0.8495632290818704 0.5274867958461003 0 -0.9279232612377727 0.37277127203401317 0
          -0.9238895535275715 0.38265923859567885 0 -0.9771317073339606 -0.212634960725228 0
          0.548585992636395 0.8360941386489569 0 0.8759326668896784 0.48243337682579096 0
          -0.8634337466960158 -0.5044622533614189 0 0.3327900131194182 0.9430009582009858 0
          0.06914383545835452 -0.9976067010691678 0 0.997289247770051 0.07358095053915689 0
          -0.91256895540186 0.40892285536120154 0 0.7011794640138924 0.7129848239936041 0
          0.9999613699546525 0.008789687048738946 0 -0.8691955567617615 -0.4944684864636082 0
          0.14887336406843246 0.988856269369289 0 -0.917979645526217 0.3966274957684615 0
          -0.7233656161701273 0.6904651948815466 0 0.5853454400924482 0.8107840130164001 0
          0.2083437584802309 -0.9780556621697618 0 0.2107440954177671 0.9775412657512454 0
          0.6251202460583821 0.7805284607033287 0 0.11642601083790667 -0.9931993677003483 0
          <InformationKey name="L2_NORM_RANGE" location="vtkDataArray" length="2">
            <Value index="0">
              1
            </Value>
            <Value index="1">
              1
            </Value>
          </InformationKey>
        </DataArray>
        <DataArray type="Float64" Name="velocity" NumberOfComponents="3" format="ascii" RangeMin="2.98391528750295" RangeMax="65.61664053985334">
          20.472372037415383 -30.489259884928693 0 -7.778161120144524 43.605506408926914 0
          -35.778279556590725 14.318100471258902 0 -2.7267860528004704 -6.306708942777526 0
          -25.56803597993237 0.5919415230237348 0 40.69440930810454 -42.34960265147567 0
          21.390392053252754 11.720491675449018 0 -31.091580543867785 -10.301819378431787 0
          -22.233594277397 35.80993014386058 0 40.8936574712134 11.727908496204755 0
          -31.918129728714472 1.502371966558826 0 32.46317064138093 -14.067556233339687 0
          31.61170207931397 -20.66117562390716 0 -32.788218903188394 -0.7210412736466054 0
          -30.467523066969363 36.43074923190564 0 -29.58028331655805 11.627227611362315 0
          37.80505508071815 -10.753091333426255 0 44.65772551607054 -33.330173144632525 0
          47.18774005931614 6.396489460552942 0 9.836891189866492 -36.87781496106794 0
          6.677739541459459 5.438027088135769 0 -18.951003944933063 -37.93510690561732 0
          23.77908201111339 -25.727634747998636 0 32.285914726045576 -31.45240287607238 0
          -18.732306147503376 38.172541468590836 0 17.42129460906331 23.929755673071398 0
          -43.74567596165927 -36.843843838172035 0 -41.00470913383489 -49.1685554695042 0
          -4.3489588147394045 13.430332075080756 0 2.9762992276979077 -0.21305715242312573 0
          -16.420210149222868 -24.717665071237764 0 -26.63245586108499 -32.68369682188443 0
          9.59810303037343 22.68931438280859 0 37.757309281314306 20.71597266757422 0
          -26.523439665569285 -2.200425364398683 0 -48.17882370239545 24.733119867345934 0
          15.472358145094617 -42.19330576503555 0 -2.7230899171649696 49.647506705142575 0
          3.209752212846098 39.943600631846664 0 27.290092728339346 -29.624030405099575 0
          40.710862227344634 -12.518743865476708 0 34.808888796398136 -17.330075407408792 0
          -17.326333983387784 15.921061981020685 0 8.676498234140595 -45.101679767889145 0
          26.99656655139428 -0.8247828969564566 0 -1.181598492863479 -7.087342925864128 0
          -10.527228461045638 27.645380145270124 0 47.47543864880045 24.850515939083976 0
          13.45020038299144 -42.781974126121774 0 13.33632968921519 2.89206325620421 0
          -20.383234879262602 -17.467213088655853 0 13.111992425538233 49.45054225750374 0
          1.6047826830209004 22.445391370448775 0 -25.442525168919026 -16.766088433362327 0
          24.860911549332883 18.296648546241826 0 18.127137052491975 -42.11576276898946 0
          -4.106371249565804 19.81468592825003 0 -43.2115168522386 -43.085994704941484 0
          2.7042817825837204 -23.795120132132308 0 -1.6624837545658195 -36.91945356486498 0
          -40.55592314206473 -37.96183180819797 0 46.98372058379586 25.62816454897687 0
          -23.182362140209666 22.4905983535036 0 -8.42374893276238 -2.5281598168396826 0
          -44.45585735866184 11.374414308737222 0 -0.9380815156004232 40.44748670579848 0
          43.5214270198436 41.82766196839604 0 -19.617472876146607 29.010177679462174 0
          -27.377259211045168 -5.104813753149479 0 1.0108912986547693 -26.93680745999526 0
          21.18807799653547 48.4452609761332 0 15.521324819791857 -22.733301715898534 0
          -3.0984436752635744 -49.699879474370995 0 -5.357606698271908 47.09441502974741 0
          -19.533649987483585 -28.48909553641595 0 -25.241492794096537 30.645102659141713 0
          -1.3628901407151872 -9.249808436218693 0 -28.437070584076316 4.0252086974848424 0
          22.302423751473526 -21.630608392707323 0 4.286209731170565 25.592468486596516 0
          -16.80227135673981 30.176297340482108 0 35.70724318896097 -48.51082997011254 0
          38.494266527440914 9.308694076898924 0 -41.37827709570729 42.48759424258512 0
          41.371957205314274 48.07567751376408 0 40.00221093710812 44.971458396046486 0
          43.45219546574209 -49.16757290067578 0 27.77940311086799 -47.40411222574361 0
          8.787704962513757 14.978077069606684 0 -17.176354508003442 -38.89206379839693 0
          -37.572734230027905 47.39150589914381 0 3.322947059262674 16.230028184641725 0
          20.82576325094061 -43.12614201683975 0 -29.404442159877867 -6.6570323329381935 0
          -48.88074135310182 -43.07374742736768 0 -15.693819004659524 -18.776991949103287 0
          49.2742614956165 -23.093566379026992 0 35.70662412955289 -14.438908494432013 0
          24.676827977366614 34.48562696853686 0 -28.28613766609157 46.49521791482232 0
          21.219265309149932 48.266786794162286 0 25.989900495501132 -30.673962513745963 0
          -14.741048879365302 -30.369965831724773 0 33.206792723445574 45.25947670903301 0
          26.73700517552618 36.1968809297727 0 -4.433626259916984 -16.731616061562868 0
          33.82599634129042 5.430878965379037 0 -37.91344272052366 -28.781627030961573 0
          -0.8760744559602713 -9.034520229977083 0 25.951148963832622 -14.29357740625877 0
          27.17860558051683 48.15404052238152 0 34.61617221348607 33.462162550860555 0
          -13.28055184508198 -44.93740558320786 0 47.55616001461492 34.25892934866374 0
          36.946038841117556 -42.45015674570037 0 -46.76239316488481 11.393180618063838 0
          23.568028568935404 11.552780427737098 0 16.263007945057282 45.12644264060411 0
          -23.411248530157515 41.93857265065735 0 -38.160345232049345 -18.69342940760771 0
          37.21153998486223 -26.635630373860984 0 30.80584946405935 5.653176675427417 0
          44.35923105765637 0.370346282237378 0 16.64168251311186 -34.7034267378138 0
          47.322877480901255 13.376690736606477 0 -32.1350217035443 -42.58571958176201 0
          -0.5025219679409361 28.59799073613067 0 -3.5320261053794297 38.30316610148137 0
          14.736889949280638 40.32409694969634 0 -49.402638529229115 19.356180838194604 0
          8.508964450503598 -39.46387075781778 0 49.03198966734128 -27.000797471280585 0
          -16.70921662991016 18.938285128010065 0 46.14207459237997 -27.3400906744995 0
          42.424140585792586 37.62461911345025 0 -6.825547086494495 -2.911259141055119 0
          6.210247997996007 33.76154121673389 0 -35.16911208657487 13.927818279591207 0
          49.5593687100304 13.93941034113417 0 -6.0481675260535965 -47.161165000275155 0
          -41.68490984500472 3.0367185203014984 0 28.200151364646487 23.664522522360798 0
          -30.983903256438072 -23.817273645282434 0 -4.775523168997552 -3.9973115200368454 0
          17.36371431475763 -32.304692769073746 0 -31.21691646176371 -40.35131875297581 0
          -17.61253928181918 -32.96735050248542 0 -47.52659271635095 33.064298464373394 0
          -25.51716157275273 -35.79649925661745 0 -34.4558032257712 -19.698927528483058 0
          -46.64276824331557 -9.071061809886274 0 28.312364537561464 -5.662808823633235 0
          -48.25117889494449 -21.421563451189467 0 45.139670111270334 -32.86849758057289 0
          <InformationKey name="L2_NORM_RANGE" location="vtkDataArray" length="2">
            <Value index="0">
              2.9839152875
            </Value>
            <Value index="1">
              65.61664054
            </Value>
          </InformationKey>
        </DataArray>
        <DataArray type="Float64" Name="force" NumberOfComponents="3" format="ascii" RangeMin="0.49999999999999994" RangeMax="0.5">
          -0.46559906919423233 -0.18225670568037947 0 -0.08361830254591078 -0.49295839528234076 0
          -0.26424062184846797 -0.4244724888201059 0 0.01401591354667909 0.49980351556131736 0
          -0.3582070031407172 0.3488377028088366 0 0.4427921735411217 0.23223929695624115 0
          0.4999845038727335 0.003936481568166201 0 0.4377290801662938 0.241646958136804 0
          0.48376510111956245 -0.1263777153567018 0 -0.2723341563832086 -0.4193257770123917 0
          -0.4093938470394703 0.28704821547298076 0 -0.492137635422459 -0.0883207099201022 0
          -0.0048313810392219625 -0.4999766572123681 0 -0.26720249516094907 0.4226142763558314 0
          0.4889052281786876 0.1047457772874182 0 0.490748146089583 0.09574057190991346 0
          -0.3833544663569195 -0.32099743476264964 0 -0.49927373015938953 -0.02693960602401442 0
          0.49147341259955346 -0.09194500915084568 0 -0.4171723822072661 -0.27562148596129926 0
          0.4392155406872063 0.23893452831025702 0 0.3595329682432337 -0.34747092647617284 0
          -0.433909864919333 -0.24843958848316866 0 0.38415474063637417 0.32003927141305655 0
          -0.4540481497043769 -0.20938070051948857 0 -0.36481806880912815 0.3419177922693966 0
          0.4604119649203969 -0.19498928831640794 0 0.4970726573499521 0.05402567274043999 0
          -0.49840882426726724 0.03985779588136201 0 -0.15002283856991025 -0.4769624177096416 0
          0.23069456778056754 0.44359893642403736 0 -0.49457120995221215 -0.07348005366359564 0
          -0.4999825107568029 0.004181977680893512 0 0.19569122760479674 0.4601140548152465 0
          0.4588492498458441 -0.19863878250710804 0 -0.04802876214164103 0.49768789216449866 0
          0.3161165473156409 0.3873891177011019 0 -0.2806082079185241 -0.4138345486408238 0
          -0.46936029484720637 -0.172339530058961 0 0.49997895008309806 0.00458797055384511 0
          -0.2712377775014509 0.4200357937796176 0 0.30871049562466846 -0.39331645006428545 0
          0.3247392549225017 -0.3801899739766666 0 -0.4731715763577022 -0.16158174193629427 0
          -0.01670938693321177 0.4997207183900986 0 -0.3354698646957303 0.37075594382427424 0
          0.4176886680406584 -0.2748384554432306 0 -0.28795762399872465 0.40875470245736517 0
          -0.028438086053155166 -0.49919062016591753 0 -0.4247345340100591 0.26381921010278603 0
          0.2840998821323485 -0.4114453268326008 0 0.421184808590275 -0.2694501011556192 0
          0.49004798853329967 -0.09926212235524189 0 0.09725980514919537 0.49044931471288705 0
          -0.1353321593875176 0.48133689515298067 0 -0.4992953587339493 0.026535725856604304 0
          -0.4435464444881401 -0.2307954756530752 0 0.21144246632240438 0.4530916942910109 0
          -0.10004254252371428 -0.4898892626761591 0 0.4213520453313249 -0.2691885099611592 0
          -0.41943229904089513 -0.27217006911353997 0 -0.16832229888855219 -0.4708158915084249 0
          -0.45828906189932117 -0.19992782633600603 0 0.3241935501187996 -0.3806554111809911 0
          0.368132458918194 -0.3383467048618092 0 -0.4985696243229505 0.037793249429918505 0
          0.49978627256738634 -0.014617857339507215 0 -0.46209895641173404 -0.19095694405594765 0
          -0.3451192315126525 0.36179098391214254 0 0.4958653988233596 0.06416779760713712 0
          -0.11458147294549295 0.4866940374173915 0 -0.07835106357772949 0.4938229549506975 0
          0.03594372033491978 0.4987063755041488 0 -0.06617779623774221 0.4956011493985016 0
          0.041964378390821906 -0.4982358788227439 0 -0.4823122721051258 0.131813778402681 0
          -0.48761083670841404 -0.11061497152067779 0 0.24346450616252852 -0.43672077376630036 0
          -0.16515763343061352 0.4719353304422112 0 0.21759054987146528 -0.45017147022732723 0
          -0.2539924437090795 0.43068299077011396 0 0.4520772591080665 -0.21360278976955818 0
          -0.34282956773821016 -0.3639613818586142 0 -0.4734606502184174 -0.16073273684832667 0
          -0.47902111634783456 -0.14331353771669428 0 0.2194646240814161 0.44926081375611066 0
          -0.49398131198733375 -0.07734638587078546 0 0.11047354404135638 -0.48764289809956474 0
          0.49959701629381215 -0.020070408822951413 0 -0.02681940692958239 0.4992802013017795 0
          -0.19232601097575802 -0.46153082833344145 0 -0.3721058376274519 -0.33397192337616105 0
          -0.49604539654832663 -0.06276117082411223 0 0.1719581083237303 -0.46950016930957994 0
          0.18581498932949456 0.464190467093498 0 0.4725450122046546 0.16340505328937296 0
          -0.467620157833151 0.1770067456005532 0 0.4992186623229148 -0.027941495817504092 0
          -0.47648474436480287 -0.15153312637046873 0 0.43957403845757714 -0.2382743475787868 0
          -0.3495763549831511 0.3574861843997526 0 0.38019927912437224 -0.3247283605620361 0
          -0.354452917341989 -0.35265156938223474 0 0.49137858493219516 -0.09245045305477673 0
          -0.3972051825109418 0.30369070283176175 0 -0.48167624931343167 0.13411931571308006 0
          0.38747153206260926 0.3160155246836053 0 0.3560552150470995 -0.35103373603937804 0
          0.15063836929523214 -0.47676837321289806 0 -0.4850727619394068 -0.12126176489098107 0
          0.023940761238073243 0.4994265110617793 0 -0.046766570067064875 -0.4978080834258945 0
          0.219374411038335 -0.449304871753672 0 0.43394617005401626 -0.24837616933886952 0
          0.034157397292768996 -0.49883190777072783 0 0.01773482024883067 -0.49968537716321226 0
          -0.33096965473373596 -0.37477871823975223 0 -0.41923705189313565 -0.27247072194999644 0
          -0.369816636249146 0.33650506021955573 0 0.3211256724240705 -0.3832470515348926 0
          0.4878314590778486 0.10963789278336813 0 0.19048705159573964 -0.4622928543405814 0
          0.27396187560836555 -0.41826413988429184 0 0.03183312143016345 0.4989856234201668 0
          0.3636748087194519 -0.3431335505351671 0 -0.24158054587331704 -0.43776573627403753 0
          -0.4986921537272241 0.03614050097747274 0 0.39592886308777897 -0.30535280475872295 0
          -0.27002975960151326 0.42081341343824696 0 -0.46655640113297353 0.1797918923696169 0
          0.32356525746371384 0.381189617070613 0 0.3549340578068286 0.3521673105340399 0
          0.4247816145409352 0.2637433979230501 0 -0.46396163061888634 0.18638563601700658 0
          -0.46194477676378576 0.19132961929783943 0 -0.4885658536669803 -0.106317480362614 0
          0.2742929963181975 0.41804706932447844 0 0.4379663334448392 0.24121668841289548 0
          -0.4317168733480079 -0.25223112668070946 0 0.1663950065597091 0.4715004791004929 0
          0.03457191772917726 -0.4988033505345839 0 0.4986446238850255 0.036790475269578446 0
          -0.45628447770093 0.20446142768060077 0 0.3505897320069462 0.35649241199680204 0
          0.49998068497732623 0.004394843524369473 0 -0.43459777838088076 -0.2472342432318041 0
          0.07443668203421623 0.4944281346846445 0 -0.4589898227631085 0.19831374788423076 0
          -0.36168280808506365 0.3452325974407733 0 0.2926727200462241 0.40539200650820006 0
          0.10417187924011545 -0.4890278310848809 0 0.10537204770888355 0.4887706328756227 0
          0.31256012302919106 0.39026423035166435 0 0.058213005418953336 -0.49659968385017417 0
          <InformationKey name="L2_NORM_RANGE" location="vtkDataArray" length="2">
            <Value index="0">
              0.5
            </Value>
            <Value index="1">
              0.5
            </Value>
          </InformationKey>
        </DataArray>
        <DataArray type="Float64" Name="radius" format="ascii" RangeMin="1" RangeMax="1">
          1 1 1 1 1 1
          1 1 1 1 1 1
          1 1 1 1 1 1
          1 1 1 1 1 1
          1 1 1 1 1 1
          1 1 1 1 1 1
          1 1 1 1 1 1
          1 1 1 1 1 1
          1 1 1 1 1 1
          1 1 1 1 1 1
          1 1 1 1 1 1
          1 1 1 1 1 1
          1 1 1 1 1 1
          1 1 1 1 1 1
          1 1 1 1 1 1
          1 1 1 1 1 1
          1 1 1 1 1 1
          1 1 1 1 1 1
          1 1 1 1 1 1
          1 1 1 1 1 1
          1 1 1 1 1 1
          1 1 1 1 1 1
          1 1 1 1 1 1
          1 1 1 1 1 1
          1 1 1 1 1 1
          1 1 1 1
        </DataArray>
      </PointData>
      <CellData>
      </CellData>
      <Points>
        <DataArray type="Float32" Name="Points" NumberOfComponents="3" format="ascii" RangeMin="2.30961372038335" RangeMax="67.97208067974294">
          -36.91901779174805 33.775638580322266 0 47.199928283691406 -27.63731575012207 0
          -19.061073303222656 4.397636890411377 0 -31.11688232421875 49.19976806640625 0
          49.4332389831543 46.653602600097656 0 22.888261795043945 48.501976013183594 0
          -38.93650436401367 29.669723510742188 0 -20.352537155151367 -49.91093826293945 0
          -38.268348693847656 13.7572603225708 0 37.50690841674805 0.36799362301826477 0
          29.7476863861084 -13.415556907653809 0 -28.479894638061523 18.168914794921875 0
          -10.338086128234863 24.05909538269043 0 -2.8521409034729004 -7.889312267303467 0
          -32.50295639038086 -19.378793716430664 0 29.739274978637695 -18.747085571289062 0
          37.3353157043457 -35.34259033203125 0 49.41863250732422 31.91092300415039 0
          -37.529502868652344 26.26409149169922 0 -1.046496033668518 15.779195785522461 0
          -37.6456413269043 -29.08111000061035 0 -44.92289733886719 -46.239898681640625 0
          -8.959660530090332 -3.977776527404785 0 -0.9801214337348938 29.721607208251953 0
          42.12601852416992 30.754159927368164 0 20.92290496826172 -49.604671478271484 0
          20.68575096130371 14.241170883178711 0 -4.4799885749816895 27.3338623046875 0
          7.4633469581604 38.08373260498047 0 30.85369873046875 -47.88835144042969 0
          32.14158630371094 32.341026306152344 0 43.69538497924805 -8.58289623260498 0
          -8.006826400756836 7.9421281814575195 0 -34.25425338745117 26.071571350097656 0
          -26.30495834350586 30.793493270874023 0 49.247467041015625 -16.89670181274414 0
          -20.334304809570312 -48.61398696899414 0 -28.737760543823242 40.51478958129883 0
          34.70120620727539 45.704498291015625 0 27.84929084777832 49.15488052368164 0
          -43.410667419433594 29.576305389404297 0 9.185436248779297 23.495616912841797 0
          19.397300720214844 18.023622512817383 0 -10.628148078918457 5.9075608253479 0
          -29.307336807250977 2.253750801086426 0 -9.424417495727539 -14.900444984436035 0
          9.82094669342041 -14.009394645690918 0 46.64479064941406 -34.579925537109375 0
          -10.602039337158203 -11.202139854431152 0 22.65953254699707 -11.246838569641113 0
          42.95240783691406 -6.170394420623779 0 35.57694625854492 11.672467231750488 0
          -37.669525146484375 -2.5284152030944824 0 -15.857192993164062 2.915147066116333 0
          21.59454345703125 48.80430603027344 0 21.983009338378906 41.517269134521484 0
          0.8798705339431763 5.943047046661377 0 0.3226286470890045 -3.863297939300537 0
          4.56651496887207 -5.288481712341309 0 35.445037841796875 10.632965087890625 0
          0.1347258985042572 47.39299392700195 0 -46.86855697631836 47.8400993347168 0
          -13.670537948608398 17.847200393676758 0 -14.865230560302734 35.23523712158203 0
          -45.451637268066406 15.603585243225098 0 25.137496948242188 -36.496055603027344 0
          48.472068786621094 -40.23090362548828 0 -22.17024803161621 30.418479919433594 0
          -42.36105728149414 12.653000831604004 0 -49.5921630859375 18.267059326171875 0
          3.2323660850524902 -6.026946067810059 0 -30.011619567871094 -35.8875732421875 0
          -11.749734878540039 26.51229476928711 0 -45.871646881103516 -24.87220573425293 0
          1.0059442520141602 32.69917678833008 0 48.2670783996582 32.29868698120117 0
          -19.55938720703125 -44.46050262451172 0 -24.669267654418945 3.8634235858917236 0
          38.59720993041992 -15.51463508605957 0 -47.24256896972656 -33.62139892578125 0
          38.03084945678711 -29.121807098388672 0 -23.17421531677246 -0.819428563117981 0
          -27.54046630859375 -0.5126129984855652 0 44.705501556396484 15.199698448181152 0
          26.013225555419922 -6.675275802612305 0 5.073542594909668 -44.64051055908203 0
          -17.33599090576172 -9.62772274017334 0 40.96381759643555 31.17055892944336 0
          -24.295669555664062 -36.548980712890625 0 -0.9182095527648926 -11.719437599182129 0
          21.37643814086914 -21.30324935913086 0 12.023850440979004 31.045255661010742 0
          -19.202472686767578 -12.045099258422852 0 -15.625465393066406 31.173677444458008 0
          17.12860679626465 -12.154828071594238 0 -4.379859924316406 -19.82187271118164 0
          40.874507904052734 -1.3847229480743408 0 25.43101692199707 -39.16640090942383 0
          -10.606555938720703 37.15804672241211 0 -13.972630500793457 41.7636604309082 0
          4.894873142242432 -36.0074348449707 0 -30.065601348876953 45.495479583740234 0
          49.401954650878906 -26.172813415527344 0 -48.51784896850586 -11.035111427307129 0
          27.975488662719727 -2.459688425064087 0 3.775416851043701 -48.28470993041992 0
          39.966617584228516 -30.035688400268555 0 38.67030715942383 -5.569010257720947 0
          -35.045196533203125 -25.920852661132812 0 29.917932510375977 -3.173807382583618 0
          -41.47952651977539 14.228158950805664 0 13.472339630126953 8.26272201538086 0
          22.97269058227539 -14.464256286621094 0 18.236175537109375 21.251224517822266 0
          -33.714786529541016 -36.6645393371582 0 -4.980869293212891 -45.921424865722656 0
          29.66337776184082 -33.198097229003906 0 33.329078674316406 -17.205209732055664 0
          15.519495010375977 -8.067893981933594 0 28.081031799316406 -38.67184066772461 0