<?xml version="1.0"?>
<VTKFile type="PolyData" version="0.1" byte_order="LittleEndian" header_type="UInt32" compressor="vtkZLibDataCompressor">
  <PolyData>
    <Piece NumberOfPoints="154" NumberOfVerts="0" NumberOfLines="0" NumberOfStrips="0" NumberOfPolys="0">
      <PointData>
        <DataArray type="Int32" Name="id" format="ascii" RangeMin="0" RangeMax="153">
          0 1 2 3 4 5
          6 7 8 9 10 11
          12 13 14 15 16 17
          18 19 20 21 22 23
          24 25 26 27 28 29
          30 31 32 33 34 35
          36 37 38 39 40 41
          42 43 44 45 46 47
          48 49 50 51 52 53
          54 55 56 57 58 59
          60 61 62 63 64 65
          66 67 68 69 70 71
          72 73 74 75 76 77
          78 79 80 81 82 83
          84 85 86 87 88 89
          90 91 92 93 94 95
          96 97 98 99 100 101
          102 103 104 105 106 107
          108 109 110 111 112 113
          114 115 116 117 118 119
          120 121 122 123 124 125
          126 127 128 129 130 131
          132 133 134 135 136 137
          138 139 140 141 142 143
          144 145 146 147 148 149
          150 151 152 153
        </DataArray>
        <DataArray type="Float64" Name="director" NumberOfComponents="3" format="ascii" RangeMin="0.9999999999999999" RangeMax="1">
          -0.8995484625966393 -0.43682097413016063 0 -0.20700023838237766 -0.978340892179019 0
          -0.43777337271886163 -0.899085354200786 0 -0.01340305778303555 0.9999101749867658 0
          -0.7702761586269441 0.6377104667879607 0 0.8538024073115513 0.5205972044383257 0
          0.9998835028889201 0.01526370369807956 0 0.7767179777468902 0.6298485397655388 0
          0.9973494050994065 -0.0727610070563892 0 -0.6305608204466064 -0.7761398403108183 0
          -0.7999151277131242 0.6001131463779945 0 -0.98762776429378 -0.15681645065512026 0
          0.0875423579487303 -0.9961607980465685 0 -0.4843669896955623 0.8748649148830115 0
          0.9192327486960347 0.39371455869034444 0 0.9993747396322583 0.03535717444813504 0
          -0.7155299823106367 -0.6985820241135181 0 -0.999987897220214 -0.004919899703730906 0
          0.9930830938035718 -0.11741366530998919 0 -0.8998077167030871 -0.4362866866655191 0
          0.8520927186473096 0.5233908662063534 0 0.6758413923823068 -0.737047089637253 0
          -0.8799063510187021 -0.4751471492463705 0 0.688209087181534 0.7255124067311046 0
          -0.8577089765578225 -0.5141354991946507 0 -0.8152599428416386 0.5790951783583146 0
          0.9371051110026335 -0.3490472903959319 0 0.9686236716652405 0.24853205565831607 0
          -0.9973236856869012 0.0731126936167391 0 -0.12816244640628408 -0.9917531887174129 0
          0.7161942253006507 0.6979010185162369 0 -0.998587050463682 -0.0531404050252149 0
          -0.9838995134784134 -0.17872254300155124 0 0.18202732975353225 0.9832934715652285 0
          0.9274446391975473 -0.3739604808315061 0 -0.12892307094425298 0.9916545980220649 0
          0.5228399204731033 0.8524308872628202 0 -0.5949804903550509 -0.8037401421459943 0
          -0.9383837700396379 -0.34559499435928753 0 0.9807941471318642 0.19504574066582192 0
          -0.6366696247196325 0.7711366863010489 0 0.6835599690734875 -0.7298943544652561 0
          0.6560485545809791 -0.7547186853604514 0 -0.9273699368831875 -0.3741456937681801 0
          0.019673567802968805 0.999806456635434 0 -0.6741067255441957 0.7386339570965326 0
          0.838575245291175 -0.5447857909168021 0 -0.5603905569067488 0.8282284852199566 0
          -0.37883032602446526 -0.9254661442128488 0 -0.892865697715379 0.45032304609383406 0
          0.6249392065488322 -0.7806734196308441 0 0.7021762790611225 -0.7120031412317481 0
          0.977394442851495 -0.21142398890148587 0 0.344085903935666 0.9389381719329424 0
          -0.22442959250628217 0.9744903067796334 0 -0.9994982488802948 0.03167412958905573 0
          -0.9620614699612249 -0.2728327839832437 0 0.3303057608933545 0.9438739875219903 0
          -0.24173668854164437 -0.9703418848080918 0 0.893082671826602 -0.44989258860650055 0
          -0.7720781495685042 -0.6355276004697785 0 -0.5483414385580397 -0.8362545466304501 0
          -0.9581271722972846 -0.28634301406810925 0 0.678540021034108 -0.7345634348747779 0
          0.7317677904115847 -0.681554033746516 0 -0.9630313891090223 0.26938920466630983 0
          0.9992306426910643 0.039218907521787964 0 -0.782395669726144 -0.62278167602602 0
          -0.7244012675502114 0.6893785633247143 0 0.9469480712829649 0.32138660565349136 0
          -0.4650407714115594 0.8852892639837794 0 -0.18491661551777638 0.9827542140868443 0
          -0.09943185640936078 0.9950443738502259 0 -0.08002253222306104 0.9967930549199313 0
          0.08601067693949745 -0.996294215306106 0 -0.9398538742413333 0.3415767777141123 0
          -0.942965227053705 -0.3328912443539999 0 0.3454807940253973 -0.9384258207016584 0
          -0.2525196014815741 0.9675917790409274 0 0.42148403251054173 -0.9068358232550435 0
          -0.518901746093688 0.8548338890690529 0 0.868706507836121 -0.4953271678831794 0
          -0.6765287841738827 -0.736416189517998 0 -0.9197765908130134 -0.3924423817484428 0
          -0.9829280077781082 -0.18399057455576195 0 0.38968747571272677 0.9209471598700129 0
          -0.9953609488656959 -0.09621112967417725 0 0.3074290912184327 -0.9515709925552631 0
          0.9788865320556375 0.204404396626118 0 -0.03418399480120765 0.9994155564625913 0
          -0.08933417415736275 -0.9960017095003512 0 -0.810959776356489 -0.5851019066212597 0
          -0.98258621325291 -0.18580724831208026 0 0.4753505379081327 -0.8797964913037838 0
          0.3437507291389737 0.939060933175491 0 0.9022478102810185 0.4312179134070234 0
          -0.9331424573479861 0.3595068209291194 0 0.9960480775532922 0.0888156923206195 0
          -0.9677561281540347 -0.25188901607714403 0 0.9578765220333304 -0.2871803763096126 0
          -0.7876359221073782 0.616140936966584 0 0.7765037859973593 -0.6301125854414965 0
          -0.7061480406347124 -0.7080642235756278 0 0.9808240551717945 -0.19489528674741377 0
          -0.553140648025188 0.8330878846209895 0 -0.9746369198618171 0.22379203391155336 0
          0.8156718088358162 0.5785149092897326 0 0.6602458987718534 -0.751049501134877 0
          0.2991605167671981 -0.9542028008801813 0 -0.9792020963141441 -0.20288729525030813 0
          0.2557117854712675 0.966753061940378 0 0.019773717815952923 -0.9998044809280138 0
          0.37754199037127234 -0.9259924651456394 0 0.8914134408366553 -0.45319099449984085 0
          0.07219697049606212 -0.9973903937030829 0 -0.19620277330235875 -0.9805633440775069 0
          -0.7279249800179033 -0.6856567825566485 0 -0.8577092150626622 -0.5141351013076153 0
          -0.7851127057095267 0.6193529198554456 0 0.41166018818092226 -0.9113374180109405 0
          0.982877549410017 0.18425993288221815 0 0.2801079494206983 -0.9599685081664562 0
          0.686518240706778 -0.7271125808132262 0 -0.15618115728432364 0.9877284273064785 0
          0.5414638934146723 -0.8407240047293907 0 -0.3476811003311843 -0.9376128478601906 0
          -0.9664652405647728 0.2567974664596126 0 0.809467266442819 -0.5871650062440629 0
          -0.46410622558491466 0.8857795500988518 0 -0.9838498068080939 0.17899597102637912 0
          0.7331779768072695 0.6800368036546249 0 0.6528897136656652 0.7574529832204543 0
          0.8907476382331475 0.45449823430027725 0 -0.9939244619343368 0.11006436284528687 0
          -0.9271932014186387 0.3745834583147735 0 -0.9887273720170237 -0.14972703104085797 0
          0.5768751517912748 0.816832332394962 0 0.8055160596130656 0.5925739428167932 0
          -0.7675358050219284 -0.6410060748614947 0 0.33206909223348824 0.9432550651776151 0
          0.026225924399463824 -0.9996560412909 0 0.9816416224516513 0.19073469812933794 0
          -0.8675250909942964 0.4973934222477593 0 0.7412370917441978 0.671243304489962 0
          0.9814999510602004 -0.19146238813099653 0 -0.8293370548528475 -0.5587486460368427 0
          0.04237982597501069 0.9991015715883584 0 -0.9823834061892485 0.18687654546253263 0
          -0.597026640032033 0.8022214102678021 0 0.5739752512843835 0.8188726463333775 0
          0.0844290467260572 -0.9964294937771209 0 0.23287204571247042 0.9725073831728421 0
          0.6256251190036881 0.7801238430349512 0 0.08825335186034511 -0.9960980603762936 0
          <InformationKey name="L2_NORM_RANGE" location="vtkDataArray" length="2">
            <Value index="0">
              1
            </Value>
            <Value index="1">
              1
            </Value>
          </InformationKey>
        </DataArray>
        <DataArray type="Float64" Name="velocity" NumberOfComponents="3" format="ascii" RangeMin="2.98391528750295" RangeMax="65.61664053985334">
          20.472372037415383 -30.489259884928693 0 -7.778161120144524 43.605506408926914 0
          -35.778279556590725 14.318100471258902 0 -2.7267860528004704 -6.306708942777526 0
          -25.56803597993237 0.5919415230237348 0 40.69440930810454 -42.34960265147567 0
          21.390392053252754 11.720491675449018 0 -31.091580543867785 -10.301819378431787 0
          -22.233594277397 35.80993014386058 0 40.8936574712134 11.727908496204755 0
          -31.918129728714472 1.502371966558826 0 32.46317064138093 -14.067556233339687 0
          31.61170207931397 -20.66117562390716 0 -32.788218903188394 -0.7210412736466054 0
          -30.467523066969363 36.43074923190564 0 -29.58028331655805 11.627227611362315 0
          37.80505508071815 -10.753091333426255 0 44.65772551607054 -33.330173144632525 0
          47.18774005931614 6.396489460552942 0 9.836891189866492 -36.87781496106794 0
          6.677739541459459 5.438027088135769 0 -18.951003944933063 -37.93510690561732 0
          23.77908201111339 -25.727634747998636 0 32.285914726045576 -31.45240287607238 0
          -18.732306147503376 38.172541468590836 0 17.42129460906331 23.929755673071398 0
          -43.74567596165927 -36.843843838172035 0 -41.00470913383489 -49.1685554695042 0
          -4.3489588147394045 13.430332075080756 0 2.9762992276979077 -0.21305715242312573 0
          -16.420210149222868 -24.717665071237764 0 -26.63245586108499 -32.68369682188443 0
          9.59810303037343 22.68931438280859 0 37.757309281314306 20.71597266757422 0
          -26.523439665569285 -2.200425364398683 0 -48.17882370239545 24.733119867345934 0
          15.472358145094617 -42.19330576503555 0 -2.7230899171649696 49.647506705142575 0
          3.209752212846098 39.943600631846664 0 27.290092728339346 -29.624030405099575 0
          40.710862227344634 -12.518743865476708 0 34.808888796398136 -17.330075407408792 0
          -17.326333983387784 15.921061981020685 0 8.676498234140595 -45.101679767889145 0
          26.99656655139428 -0.8247828969564566 0 -1.181598492863479 -7.087342925864128 0
          -10.527228461045638 27.645380145270124 0 47.47543864880045 24.850515939083976 0
          13.45020038299144 -42.781974126121774 0 13.33632968921519 2.89206325620421 0
          -20.383234879262602 -17.467213088655853 0 13.111992425538233 49.45054225750374 0
          1.6047826830209004 22.445391370448775 0 -25.442525168919026 -16.766088433362327 0
          24.860911549332883 18.296648546241826 0 18.127137052491975 -42.11576276898946 0
          -4.106371249565804 19.81468592825003 0 -43.2115168522386 -43.085994704941484 0
          2.7042817825837204 -23.795120132132308 0 -1.6624837545658195 -36.91945356486498 0
          -40.55592314206473 -37.96183180819797 0 46.98372058379586 25.62816454897687 0
          -23.182362140209666 22.4905983535036 0 -8.42374893276238 -2.5281598168396826 0
          -44.45585735866184 11.374414308737222 0 -0.9380815156004232 40.44748670579848 0
          43.5214270198436 41.82766196839604 0 -19.617472876146607 29.010177679462174 0
          -27.377259211045168 -5.104813753149479 0 1.0108912986547693 -26.93680745999526 0
          21.18807799653547 48.4452609761332 0 15.521324819791857 -22.733301715898534 0
          -3.0984436752635744 -49.699879474370995 0 -5.357606698271908 47.09441502974741 0
          -19.533649987483585 -28.48909553641595 0 -25.241492794096537 30.645102659141713 0
          -1.3628901407151872 -9.249808436218693 0 -28.437070584076316 4.0252086974848424 0
          22.302423751473526 -21.630608392707323 0 4.286209731170565 25.592468486596516 0
          -16.80227135673981 30.176297340482108 0 35.70724318896097 -48.51082997011254 0
          38.494266527440914 9.308694076898924 0 -41.37827709570729 42.48759424258512 0
          41.371957205314274 48.07567751376408 0 40.00221093710812 44.971458396046486 0
          43.45219546574209 -49.16757290067578 0 27.77940311086799 -47.40411222574361 0
          8.787704962513757 14.978077069606684 0 -17.176354508003442 -38.89206379839693 0
          -37.572734230027905 47.39150589914381 0 3.322947059262674 16.230028184641725 0
          20.82576325094061 -43.12614201683975 0 -29.404442159877867 -6.6570323329381935 0
          -48.88074135310182 -43.07374742736768 0 -15.693819004659524 -18.776991949103287 0
          49.2742614956165 -23.093566379026992 0 35.70662412955289 -14.438908494432013 0
          24.676827977366614 34.48562696853686 0 -28.28613766609157 46.49521791482232 0
          21.219265309149932 48.266786794162286 0 25.989900495501132 -30.673962513745963 0
          -14.741048879365302 -30.369965831724773 0 33.206792723445574 45.25947670903301 0
          26.73700517552618 36.1968809297727 0 -4.433626259916984 -16.731616061562868 0
          33.82599634129042 5.430878965379037 0 -37.91344272052366 -28.781627030961573 0
          -0.8760744559602713 -9.034520229977083 0 25.951148963832622 -14.29357740625877 0
          27.17860558051683 48.15404052238152 0 34.61617221348607 33.462162550860555 0
          -13.28055184508198 -44.93740558320786 0 47.55616001461492 34.25892934866374 0
          36.946038841117556 -42.45015674570037 0 -46.76239316488481 11.393180618063838 0
          23.568028568935404 11.552780427737098 0 16.263007945057282 45.12644264060411 0
          -23.411248530157515 41.93857265065735 0 -38.160345232049345 -18.69342940760771 0
          37.21153998486223 -26.635630373860984 0 30.80584946405935 5.653176675427417 0
          44.35923105765637 0.370346282237378 0 16.64168251311186 -34.7034267378138 0
          47.322877480901255 13.376690736606477 0 -32.1350217035443 -42.58571958176201 0
          -0.5025219679409361 28.59799073613067 0 -3.5320261053794297 38.30316610148137 0
          14.736889949280638 40.32409694969634 0 -49.402638529229115 19.356180838194604 0
          8.508964450503598 -39.46387075781778 0 49.03198966734128 -27.000797471280585 0
          -16.70921662991016 18.938285128010065 0 46.14207459237997 -27.3400906744995 0
          42.424140585792586 37.62461911345025 0 -6.825547086494495 -2.911259141055119 0
          6.210247997996007 33.76154121673389 0 -35.16911208657487 13.927818279591207 0
          49.5593687100304 13.93941034113417 0 -6.0481675260535965 -47.161165000275155 0
          -41.68490984500472 3.0367185203014984 0 28.200151364646487 23.664522522360798 0
          -30.983903256438072 -23.817273645282434 0 -4.775523168997552 -3.9973115200368454 0
          17.36371431475763 -32.304692769073746 0 -31.21691646176371 -40.35131875297581 0
          -17.61253928181918 -32.96735050248542 0 -47.52659271635095 33.064298464373394 0
          -25.51716157275273 -35.79649925661745 0 -34.4558032257712 -19.698927528483058 0
          -46.64276824331557 -9.071061809886274 0 28.312364537561464 -5.662808823633235 0
          -48.25117889494449 -21.421563451189467 0 45.139670111270334 -32.86849758057289 0
          <InformationKey name="L2_NORM_RANGE" location="vtkDataArray" length="2">
            <Value index="0">
              2.9839152875
            </Value>
            <Value index="1">
              65.61664054
            </Value>
          </InformationKey>
        </DataArray>
        <DataArray type="Float64" Name="force" NumberOfComponents="3" format="ascii" RangeMin="0.49999999999999994" RangeMax="0.5">
          -0.44977423129831967 -0.21841048706508032 0 -0.10350011919118883 -0.4891704460895095 0
          -0.21888668635943082 -0.449542677100393 0 -0.006701528891517775 0.4999550874933829 0
          -0.38513807931347205 0.31885523339398036 0 0.42690120365577566 0.26029860221916284 0
          0.49994175144446007 0.00763185184903978 0 0.3883589888734451 0.3149242698827694 0
          0.49867470254970325 -0.0363805035281946 0 -0.3152804102233032 -0.38806992015540914 0
          -0.3999575638565621 0.30005657318899726 0 -0.49381388214689 -0.07840822532756013 0
          0.04377117897436515 -0.49808039902328427 0 -0.24218349484778115 0.4374324574415058 0
          0.45961637434801733 0.19685727934517222 0 0.49968736981612916 0.01767858722406752 0
          -0.35776499115531835 -0.34929101205675905 0 -0.499993948610107 -0.002459949851865453 0
          0.4965415469017859 -0.058706832654994594 0 -0.44990385835154356 -0.21814334333275956 0
          0.4260463593236548 0.2616954331031767 0 0.3379206961911534 -0.3685235448186265 0
          -0.43995317550935104 -0.23757357462318526 0 0.344104543590767 0.3627562033655523 0
          -0.42885448827891126 -0.25706774959732537 0 -0.4076299714208193 0.2895475891791573 0
          0.46855255550131675 -0.17452364519796595 0 0.4843118358326203 0.12426602782915804 0
          -0.4986618428434506 0.03655634680836955 0 -0.06408122320314204 -0.49587659435870646 0
          0.35809711265032534 0.34895050925811844 0 -0.499293525231841 -0.02657020251260745 0
          -0.4919497567392067 -0.08936127150077562 0 0.09101366487676613 0.49164673578261425 0
          0.46372231959877364 -0.18698024041575306 0 -0.06446153547212649 0.49582729901103245 0
          0.2614199602365517 0.4262154436314101 0 -0.2974902451775254 -0.40187007107299716 0
          -0.46919188501981896 -0.17279749717964377 0 0.4903970735659321 0.09752287033291096 0
          -0.31833481235981625 0.38556834315052446 0 0.34177998453674374 -0.36494717723262804 0
          0.32802427729048955 -0.3773593426802257 0 -0.46368496844159374 -0.18707284688409004 0
          0.009836783901484403 0.499903228317717 0 -0.33705336277209785 0.3693169785482663 0
          0.4192876226455875 -0.27239289545840106 0 -0.2801952784533744 0.4141142426099783 0
          -0.18941516301223263 -0.4627330721064244 0 -0.4464328488576895 0.22516152304691703 0
          0.3124696032744161 -0.39033670981542207 0 0.3510881395305612 -0.35600157061587406 0
          0.4886972214257475 -0.10571199445074293 0 0.172042951967833 0.4694690859664712 0
          -0.11221479625314108 0.4872451533898167 0 -0.4997491244401474 0.015837064794527865 0
          -0.48103073498061244 -0.13641639199162184 0 0.16515288044667725 0.4719369937609951 0
          -0.12086834427082219 -0.4851709424040459 0 0.446541335913301 -0.22494629430325028 0
          -0.3860390747842521 -0.31776380023488926 0 -0.27417071927901987 -0.41812727331522503 0
          -0.4790635861486423 -0.14317150703405462 0 0.339270010517054 -0.36728171743738897 0
          0.36588389520579234 -0.340777016873258 0 -0.48151569455451115 0.13469460233315492 0
          0.49961532134553216 0.019609453760893982 0 -0.391197834863072 -0.31139083801301 0
          -0.3622006337751057 0.3446892816623571 0 0.47347403564148244 0.16069330282674568 0
          -0.2325203857057797 0.4426446319918897 0 -0.09245830775888819 0.49137710704342213 0
          -0.04971592820468039 0.49752218692511296 0 -0.04001126611153052 0.49839652745996565 0
          0.04300533846974872 -0.498147107653053 0 -0.46992693712066663 0.17078838885705616 0
          -0.4714826135268525 -0.16644562217699996 0 0.17274039701269864 -0.4692129103508292 0
          -0.12625980074078705 0.4837958895204637 0 0.21074201625527086 -0.45341791162752176 0
          -0.259450873046844 0.42741694453452644 0 0.4343532539180605 -0.2476635839415897 0
          -0.33826439208694137 -0.368208094758999 0 -0.4598882954065067 -0.1962211908742214 0
          -0.4914640038890541 -0.09199528727788098 0 0.19484373785636339 0.4604735799350064 0
          -0.49768047443284796 -0.048105564837088624 0 0.15371454560921635 -0.47578549627763156 0
          0.48944326602781874 0.102202198313059 0 -0.017091997400603826 0.49970777823129564 0
          -0.044667087078681375 -0.4980008547501756 0 -0.4054798881782445 -0.29255095331062986 0
          -0.491293106626455 -0.09290362415604013 0 0.23767526895406635 -0.4398982456518919 0
          0.17187536456948685 0.4695304665877455 0 0.45112390514050926 0.2156089567035117 0
          -0.46657122867399303 0.1797534104645597 0 0.4980240387766461 0.04440784616030975 0
          -0.48387806407701733 -0.12594450803857202 0 0.4789382610166652 -0.1435901881548063 0
          -0.3938179610536891 0.308070468483292 0 0.3882518929986796 -0.31505629272074825 0
          -0.3530740203173562 -0.3540321117878139 0 0.49041202758589725 -0.09744764337370689 0
          -0.276570324012594 0.41654394231049474 0 -0.48731845993090855 0.11189601695577668 0
          0.4078359044179081 0.2892574546448663 0 0.3301229493859267 -0.3755247505674385 0
          0.14958025838359906 -0.47710140044009064 0 -0.48960104815707206 -0.10144364762515407 0
          0.12785589273563375 0.483376530970189 0 0.009886858907976461 -0.4999022404640069 0
          0.18877099518563617 -0.4629962325728197 0 0.44570672041832765 -0.22659549724992042 0
          0.03609848524803106 -0.49869519685154146 0 -0.09810138665117937 -0.49028167203875345 0
          -0.36396249000895164 -0.34282839127832426 0 -0.4288546075313311 -0.25706755065380765 0
          -0.39255635285476337 0.3096764599277228 0 0.20583009409046113 -0.45566870900547024 0
          0.4914387747050085 0.09212996644110907 0 0.14005397471034914 -0.4799842540832281 0
          0.343259120353389 -0.3635562904066131 0 -0.07809057864216182 0.49386421365323924 0
          0.27073194670733614 -0.42036200236469534 0 -0.17384055016559216 -0.4688064239300953 0
          -0.4832326202823864 0.1283987332298063 0 0.4047336332214095 -0.29358250312203144 0
          -0.23205311279245733 0.4428897750494259 0 -0.49192490340404693 0.08949798551318956 0
          0.36658898840363474 0.34001840182731247 0 0.3264448568328326 0.37872649161022715 0
          0.44537381911657375 0.22724911715013862 0 -0.4969622309671684 0.055032181422643434 0
          -0.46359660070931935 0.18729172915738676 0 -0.4943636860085118 -0.07486351552042898 0
          0.2884375758956374 0.408416166197481 0 0.4027580298065328 0.2962869714083966 0
          -0.3837679025109642 -0.3205030374307474 0 0.16603454611674412 0.4716275325888076 0
          0.013112962199731912 -0.49982802064545 0 0.49082081122582566 0.09536734906466897 0
          -0.4337625454971482 0.24869671112387964 0 0.3706185458720989 0.335621652244981 0
          0.4907499755301002 -0.09573119406549827 0 -0.41466852742642374 -0.27937432301842136 0
          0.021189912987505347 0.4995507857941792 0 -0.49119170309462423 0.09343827273126631 0
          -0.2985133200160165 0.40111070513390107 0 0.28698762564219177 0.40943632316668876 0
          0.0422145233630286 -0.49821474688856043 0 0.11643602285623521 0.48625369158642107 0
          0.31281255950184406 0.3900619215174756 0 0.044126675930172554 -0.4980490301881468 0
          <InformationKey name="L2_NORM_RANGE" location="vtkDataArray" length="2">
            <Value index="0">
              0.5
            </Value>
            <Value index="1">
              0.5
            </Value>
          </InformationKey>
        </DataArray>
        <DataArray type="Float64" Name="radius" format="ascii" RangeMin="1" RangeMax="1">
          1 1 1 1 1 1
          1 1 1 1 1 1
          1 1 1 1 1 1
          1 1 1 1 1 1
          1 1 1 1 1 1
          1 1 1 1 1 1
          1 1 1 1 1 1
          1 1 1 1 1 1
          1 1 1 1 1 1
          1 1 1 1 1 1
          1 1 1 1 1 1
          1 1 1 1 1 1
          1 1 1 1 1 1
          1 1 1 1 1 1
          1 1 1 1 1 1
          1 1 1 1 1 1
          1 1 1 1 1 1
          1 1 1 1 1 1
          1 1 1 1 1 1
          1 1 1 1 1 1
          1 1 1 1 1 1
          1 1 1 1 1 1
          1 1 1 1 1 1
          1 1 1 1 1 1
          1 1 1 1 1 1
          1 1 1 1
        </DataArray>
      </PointData>
      <CellData>
      </CellData>
      <Points>
        <DataArray type="Float32" Name="Points" NumberOfComponents="3" format="ascii" RangeMin="2.416653688031654" RangeMax="67.81686921129568">
          -37.1377067565918 33.912803649902344 0 47.08655548095703 -27.72064208984375 0
          -19.082996368408203 4.568752765655518 0 -31.05257797241211 49.121971130371094 0
          49.25305938720703 46.61827850341797 0 22.631542205810547 48.44684982299805 0
          -38.95116424560547 29.492319107055664 0 -20.31468391418457 -50.150455474853516 0
          -38.366310119628906 13.81779956817627 0 37.40385055541992 0.4498606026172638 0
          29.807140350341797 -13.178335189819336 0 -28.58991241455078 18.35371208190918 0
          -10.662474632263184 24.03453826904297 0 -2.8824172019958496 -7.928725719451904 0
          -32.55279541015625 -19.15549087524414 0 29.648544311523438 -18.81181526184082 0
          37.083431243896484 -35.28271484375 0 49.14790725708008 31.717164993286133 0
          -37.288856506347656 26.084867477416992 0 -1.166841983795166 15.752273559570312 0
          -37.78297805786133 -29.03508758544922 0 -44.800048828125 -46.149452209472656 0
          -8.88234806060791 -4.020852565765381 0 -0.9726114869117737 29.594484329223633 0
          42.01376724243164 30.75967788696289 0 20.828754425048828 -49.54481506347656 0
          20.584562301635742 14.614019393920898 0 -4.391009330749512 27.388105392456055 0
          7.592480182647705 38.10455322265625 0 30.836301803588867 -47.83974838256836 0
          32.274173736572266 32.35902786254883 0 43.72468185424805 -8.702844619750977 0
          -7.7965922355651855 8.04915714263916 0 -34.13685989379883 26.174501419067383 0
          -26.308486938476562 30.93503189086914 0 49.43294143676758 -17.06774139404297 0
          -20.420249938964844 -48.58900451660156 0 -28.67017936706543 40.45758819580078 0
          34.74883270263672 45.728755950927734 0 27.862905502319336 49.09093475341797 0
          -43.2331657409668 29.589649200439453 0 8.878936767578125 23.571210861206055 0
          19.34552764892578 18.125530242919922 0 -10.489947319030762 5.948690891265869 0
          -29.346818923950195 2.2989938259124756 0 -9.677251815795898 -14.88806438446045 0
          9.763213157653809 -13.885056495666504 0 46.5472526550293 -34.789466857910156 0
          -10.60336971282959 -11.207171440124512 0 22.72274398803711 -11.318216323852539 0
          42.837249755859375 -6.055904388427734 0 35.61795425415039 11.633856773376465 0
          -37.64100646972656 -2.4882218837738037 0 -15.800789833068848 2.8122150897979736 0
          21.552978515625 49.00421905517578 0 21.924589157104492 41.389827728271484 0
          0.6334512233734131 5.8254265785217285 0 0.12316685914993286 -3.9651591777801514 0
          4.780683517456055 -5.175164699554443 0 35.354515075683594 10.63492202758789 0
          0.23190422356128693 47.31890106201172 0 -47.19249725341797 47.53352355957031 0
          -13.741225242614746 17.99306869506836 0 -14.797658920288086 35.035579681396484 0
          -45.45219039916992 15.795866012573242 0 24.96410369873047 -36.45376205444336 0
          48.525203704833984 -40.22195053100586 0 -22.199888229370117 30.487712860107422 0
          -42.283180236816406 12.954151153564453 0 -49.48410415649414 18.381744384765625 0
          3.194518566131592 -6.085835933685303 0 -29.786954879760742 -35.82477569580078 0
          -11.644681930541992 26.54081916809082 0 -45.910160064697266 -25.10610008239746 0
          1.1252411603927612 32.838714599609375 0 48.25994873046875 32.367225646972656 0
          -19.417768478393555 -44.560489654541016 0 -24.512001037597656 3.8561336994171143 0
          38.50214385986328 -15.269583702087402 0 -47.32388687133789 -33.40299987792969 0
          38.04912185668945 -29.247692108154297 0 -23.229955673217773 -0.8437032103538513 0
          -27.39145278930664 -0.4213266670703888 0 44.82579040527344 15.309127807617188 0
          25.985733032226562 -6.759592533111572 0 4.950409889221191 -44.71023178100586 0
          -17.14743995666504 -9.60218334197998 0 40.86589050292969 31.128158569335938 0
          -24.367605209350586 -36.51299285888672 0 -0.8952882289886475 -11.656241416931152 0
          21.383007049560547 -21.267953872680664 0 12.089104652404785 31.219459533691406 0
          -19.12064552307129 -12.074363708496094 0 -15.756030082702637 31.30898666381836 0
          17.0969295501709 -12.088552474975586 0 -4.425407886505127 -19.71326446533203 0
          40.84800338745117 -1.3984893560409546 0 25.456024169921875 -39.09105682373047 0
          -10.484859466552734 37.16378402709961 0 -13.885296821594238 42.062503814697266 0
          5.12389612197876 -36.25226974487305 0 -30.158254623413086 45.26491165161133 0
          49.626949310302734 -26.20224380493164 0 -48.377559661865234 -11.033891677856445 0
          27.926115036010742 -2.556666374206543 0 3.8416121006011963 -48.09783935546875 0
          40.04433059692383 -29.94528579711914 0 38.714080810546875 -5.61812686920166 0
          -34.97130584716797 -25.962745666503906 0 29.961536407470703 -3.0662789344787598 0
          -41.382659912109375 14.217676162719727 0 13.525262832641602 8.198742866516113 0
          22.97062873840332 -14.492334365844727 0 18.303380966186523 21.46962547302246 0
          -33.700714111328125 -36.45841979980469 0 -5.00039005279541 -46.02391815185547 0
          29.7933406829834 -33.072418212890625 0 33.2762451171875 -17.143230438232422 0
          15.298784255981445 -8.101500511169434 0 28.102327346801758 -38.813987731933594 0