<?xml version="1.0"?>
<VTKFile type="PolyData" version="0.1" byte_order="LittleEndian" header_type="UInt32" compressor="vtkZLibDataCompressor">
  <PolyData>
    <Piece NumberOfPoints="154" NumberOfVerts="0" NumberOfLines="0" NumberOfStrips="0" NumberOfPolys="0">
      <PointData>
        <DataArray type="Int32" Name="id" format="ascii" RangeMin="0" RangeMax="153">
          0 1 2 3 4 5
          6 7 8 9 10 11
          12 13 14 15 16 17
          18 19 20 21 22 23
          24 25 26 27 28 29
          30 31 32 33 34 35
          36 37 38 39 40 41
          42 43 44 45 46 47
          48 49 50 51 52 53
          54 55 56 57 58 59
          60 61 62 63 64 65
          66 67 68 69 70 71
          72 73 74 75 76 77
          78 79 80 81 82 83
          84 85 86 87 88 89
          90 91 92 93 94 95
          96 97 98 99 100 101
          102 103 104 105 106 107
          108 109 110 111 112 113
          114 115 116 117 118 119
          120 121 122 123 124 125
          126 127 128 129 130 131
          132 133 134 135 136 137
          138 139 140 141 142 143
          144 145 146 147 148 149
          150 151 152 153
        </DataArray>
        <DataArray type="Float64" Name="director" NumberOfComponents="3" format="ascii" RangeMin="0.9999999999999999" RangeMax="1">
          -0.9381734886097579 -0.34616543049501125 0 -0.1844520653810222 -0.9828415109144888 0
          -0.42876485005323767 -0.903416129676034 0 0.014830359420845783 0.9998900241723829 0
          -0.7661557715488918 0.642654910291925 0 0.7973897165537153 0.603464696510397 0
          0.9896231167884731 -0.1436874619368998 0 0.5517536385607282 0.8340071476522232 0
          0.9724240909759948 -0.23321961171717584 0 -0.4156042808556437 -0.9095455358224036 0
          -0.8547071334255288 0.5191105046823029 0 -0.9896808710327476 -0.14328912558830842 0
          0.1954112751864732 -0.9807213842524269 0 -0.5974342062801661 0.8019179316902622 0
          0.8773623464079402 0.4798284204854414 0 0.9971340653378086 -0.07565484612960893 0
          -0.7428528577675338 -0.6694547271523356 0 -0.9999151918798522 -0.013023403851462823 0
          0.9999956352913552 0.0029545555061756385 0 -0.8078557437354149 -0.5893802654599996 0
          0.7337849681545378 0.6793817928900097 0 0.6430696539708677 -0.7658076913571634 0
          -0.8571460973470862 -0.5150733615735328 0 0.6336396117413994 0.7736283619621301 0
          -0.7594063935351498 -0.6506165763780825 0 -0.6823590853452414 0.7310171534559265 0
          0.8699155275062463 -0.4932007451368348 0 0.9330061500859248 0.35986042280562164 0
          -0.955192113668524 0.29598653007435577 0 -0.15475297680345482 -0.9879531953339031 0
          0.7796857396302724 0.6261710209017941 0 -0.9967862669272324 -0.08010704129645727 0
          -0.9907579305027288 0.13564189303437993 0 0.020246503622312086 0.9997950185368357 0
          0.8889879073524575 -0.45793067224318834 0 -0.273407073505826 0.9618984209140692 0
          0.596874147097709 0.8023348755515881 0 -0.5597681538782666 -0.8286492707434897 0
          -0.798850103951721 -0.6015301417354949 0 0.9147284670249342 0.40406909262428625 0
          -0.6160372567558902 0.7877170166301332 0 0.6064420096471584 -0.7951277186308598 0
          0.4475331534911 -0.8942673406349533 0 -0.9830101631230251 -0.1835511351009401 0
          -0.1720133346250648 0.9850946211969516 0 -0.744114707412845 0.668051870899181 0
          0.707567458324981 -0.7066458037231426 0 -0.6797201176474137 0.733471582043494 0
          -0.4819166323107449 -0.8762170732770906 0 -0.8540102193833968 0.5202562303218697 0
          0.8025613691438156 -0.5965695674085331 0 0.7467158939508173 -0.6651431227346727 0
          0.924952816680325 -0.38008194763120884 0 0.14945887356557513 0.9887679430040749 0
          -0.27079833755725585 0.9626360996639522 0 -0.9987401631877493 0.05018053841588379 0
          -0.8909462187359436 -0.45410883642594335 0 0.2868421578283913 0.957977858038667 0
          -0.28124900194652025 -0.9596348258082792 0 0.9154257740780861 -0.4024868347580288 0
          -0.7908982764498015 -0.6119476418033926 0 -0.7387348723431948 -0.6739961338049972 0
          -0.9880775711922302 -0.153956855342214 0 0.7165116908622615 -0.6975750833119707 0
          0.7540097105505573 -0.656863270700581 0 -0.9717045265581524 0.23619973130043329 0
          0.9954730994238372 0.0950437179591529 0 -0.9174663156265415 -0.3978134734906039 0
          -0.7022036947720595 0.7119761028633393 0 0.9202824339416634 0.3912547019249838 0
          -0.38968110225197417 0.9209498566956219 0 -0.02085654441907458 0.9997824786196722 0
          0.05840264030070691 0.9982931090646204 0 -0.031311811223673665 0.9995096650247526 0
          0.1721078944668949 -0.9850781048537076 0 -0.9211338457941372 0.3892459866620372 0
          -0.9068489777382482 -0.42145572908087753 0 0.3162553932770036 -0.948674088516814 0
          -0.35558399756159587 0.9346443284362854 0 0.32928687801932893 -0.9442299253700254 0
          -0.4674152465760082 0.884037887914477 0 0.9357048912120505 -0.35278372491066656 0
          -0.6302011986732468 -0.7764318702827718 0 -0.9140332769754843 -0.40563920986691815 0
          -0.9953021704091999 -0.09681729999713921 0 0.29062148106815894 0.9568381026807773 0
          -0.9619412285077258 -0.27325642334087463 0 0.3750486827849949 -0.9270051162432925 0
          0.9952085705209346 0.09777474705504413 0 -0.08418057140052582 0.9964505162820083 0
          0.014509637017681803 -0.999894729675887 0 -0.5689536337864187 -0.8223696021870153 0
          -0.9680570662948613 -0.2507299670892699 0 0.5754984617157977 -0.8178028616743467 0
          0.30189243584319375 0.9533419938199844 0 0.9030404145440932 0.4295555955869186 0
          -0.9564811472852599 0.291794131003132 0 0.9959540022776032 0.08986448323572477 0
          -0.9952334852118769 -0.09752081784429742 0 0.9588895416737347 -0.28377957443892055 0
          -0.7761864303098027 0.6305034697786569 0 0.5714115065036963 -0.8206636888733266 0
          -0.7870221227775505 -0.6169247752025512 0 0.999550226180026 -0.02998908707278052 0
          -0.746444298886437 0.6654479007855802 0 -0.9988090321895371 -0.04879054433597056 0
          0.8490900322433441 0.5282481586763903 0 0.6050845491283847 -0.7961612201094068 0
          0.11914104602919524 -0.9928773394287278 0 -0.9752299363472603 -0.2211935153934643 0
          0.3539250580239683 0.9352737852109032 0 0.11534662942906615 -0.9933253017412542 0
          0.37445943434204815 -0.9272432971082796 0 0.9715233527022167 -0.23694382278135928 0
          0.06616471257040772 -0.9978087145392525 0 -0.16324869589280078 -0.9865849498595141 0
          -0.8308509716267424 -0.5564949801632519 0 -0.851663824499621 -0.5240884753919693 0
          -0.7781254595811585 0.6281088831975 0 0.14687454212550688 -0.9891551288222807 0
          0.96155995792496 0.27459506061717354 0 0.17260890089644795 -0.9849904402233152 0
          0.6013468466511585 -0.7989880912896689 0 -0.21583062526455832 0.9764308174150946 0
          0.6279422345955147 -0.7782599501523843 0 -0.29187153217743694 -0.9564575310511154 0
          -0.946987721064694 0.3212697560504217 0 0.6746270780292023 -0.738158726555326 0
          -0.5893629608649161 0.8078683682138689 0 -0.9755940361744189 0.2195820497693438 0
          0.8021356767067496 0.5971418224795555 0 0.5822953385567153 0.8129773297547235 0
          0.763362329716773 0.6459705516270697 0 -0.9999978989481182 -0.0020499022779726706 0
          -0.9406106155226979 0.3394873634850219 0 -0.9790500284567657 -0.20361984623019017 0
          0.5450290918474546 0.8384171330787192 0 0.7624540459389837 0.6470423694251205 0
          -0.6624811480174059 -0.7490785863456116 0 0.14658553691381476 0.9891979985663581 0
          0.034425107521083124 -0.999407280327776 0 0.9950718877077673 0.0991561308931546 0
          -0.9108558328631265 0.412724668198086 0 0.7045701676401342 0.7096343275741057 0
          0.8576725263295112 -0.514196302572815 0 -0.8346900318028484 -0.5507200294241711 0
          -0.04450995589345929 0.9990089408140261 0 -0.9654575649922358 0.2605603388838425 0
          -0.5794405185224578 0.8150145308486378 0 0.6501544262497816 0.7598020939875181 0
          0.09427953024619871 -0.9955457649834869 0 0.3004331974641586 0.9538028590130467 0
          0.45841417059546047 0.8887386838645407 0 -0.0025899557260856826 -0.999996646059044 0
          <InformationKey name="L2_NORM_RANGE" location="vtkDataArray" length="2">
            <Value index="0">
              1
            </Value>
            <Value index="1">
              1
            </Value>
          </InformationKey>
        </DataArray>
        <DataArray type="Float64" Name="velocity" NumberOfComponents="3" format="ascii" RangeMin="2.98391528750295" RangeMax="65.61664053985334">
          20.472372037415383 -30.489259884928693 0 -7.778161120144524 43.605506408926914 0
          -35.778279556590725 14.318100471258902 0 -2.7267860528004704 -6.306708942777526 0
          -25.56803597993237 0.5919415230237348 0 40.69440930810454 -42.34960265147567 0
          21.390392053252754 11.720491675449018 0 -31.091580543867785 -10.301819378431787 0
          -22.233594277397 35.80993014386058 0 40.8936574712134 11.727908496204755 0
          -31.918129728714472 1.502371966558826 0 32.46317064138093 -14.067556233339687 0
          31.61170207931397 -20.66117562390716 0 -32.788218903188394 -0.7210412736466054 0
          -30.467523066969363 36.43074923190564 0 -29.58028331655805 11.627227611362315 0
          37.80505508071815 -10.753091333426255 0 44.65772551607054 -33.330173144632525 0
          47.18774005931614 6.396489460552942 0 9.836891189866492 -36.87781496106794 0
          6.677739541459459 5.438027088135769 0 -18.951003944933063 -37.93510690561732 0
          23.77908201111339 -25.727634747998636 0 32.285914726045576 -31.45240287607238 0
          -18.732306147503376 38.172541468590836 0 17.42129460906331 23.929755673071398 0
          -43.74567596165927 -36.843843838172035 0 -41.00470913383489 -49.1685554695042 0
          -4.3489588147394045 13.430332075080756 0 2.9762992276979077 -0.21305715242312573 0
          -16.420210149222868 -24.717665071237764 0 -26.63245586108499 -32.68369682188443 0
          9.59810303037343 22.68931438280859 0 37.757309281314306 20.71597266757422 0
          -26.523439665569285 -2.200425364398683 0 -48.17882370239545 24.733119867345934 0
          15.472358145094617 -42.19330576503555 0 -2.7230899171649696 49.647506705142575 0
          3.209752212846098 39.943600631846664 0 27.290092728339346 -29.624030405099575 0
          40.710862227344634 -12.518743865476708 0 34.808888796398136 -17.330075407408792 0
          -17.326333983387784 15.921061981020685 0 8.676498234140595 -45.101679767889145 0
          26.99656655139428 -0.8247828969564566 0 -1.181598492863479 -7.087342925864128 0
          -10.527228461045638 27.645380145270124 0 47.47543864880045 24.850515939083976 0
          13.45020038299144 -42.781974126121774 0 13.33632968921519 2.89206325620421 0
          -20.383234879262602 -17.467213088655853 0 13.111992425538233 49.45054225750374 0
          1.6047826830209004 22.445391370448775 0 -25.442525168919026 -16.766088433362327 0
          24.860911549332883 18.296648546241826 0 18.127137052491975 -42.11576276898946 0
          -4.106371249565804 19.81468592825003 0 -43.2115168522386 -43.085994704941484 0
          2.7042817825837204 -23.795120132132308 0 -1.6624837545658195 -36.91945356486498 0
          -40.55592314206473 -37.96183180819797 0 46.98372058379586 25.62816454897687 0
          -23.182362140209666 22.4905983535036 0 -8.42374893276238 -2.5281598168396826 0
          -44.45585735866184 11.374414308737222 0 -0.9380815156004232 40.44748670579848 0
          43.5214270198436 41.82766196839604 0 -19.617472876146607 29.010177679462174 0
          -27.377259211045168 -5.104813753149479 0 1.0108912986547693 -26.93680745999526 0
          21.18807799653547 48.4452609761332 0 15.521324819791857 -22.733301715898534 0
          -3.0984436752635744 -49.699879474370995 0 -5.357606698271908 47.09441502974741 0
          -19.533649987483585 -28.48909553641595 0 -25.241492794096537 30.645102659141713 0
          -1.3628901407151872 -9.249808436218693 0 -28.437070584076316 4.0252086974848424 0
          22.302423751473526 -21.630608392707323 0 4.286209731170565 25.592468486596516 0
          -16.80227135673981 30.176297340482108 0 35.70724318896097 -48.51082997011254 0
          38.494266527440914 9.308694076898924 0 -41.37827709570729 42.48759424258512 0
          41.371957205314274 48.07567751376408 0 40.00221093710812 44.971458396046486 0
          43.45219546574209 -49.16757290067578 0 27.77940311086799 -47.40411222574361 0
          8.787704962513757 14.978077069606684 0 -17.176354508003442 -38.89206379839693 0
          -37.572734230027905 47.39150589914381 0 3.322947059262674 16.230028184641725 0
          20.82576325094061 -43.12614201683975 0 -29.404442159877867 -6.6570323329381935 0
          -48.88074135310182 -43.07374742736768 0 -15.693819004659524 -18.776991949103287 0
          49.2742614956165 -23.093566379026992 0 35.70662412955289 -14.438908494432013 0
          24.676827977366614 34.48562696853686 0 -28.28613766609157 46.49521791482232 0
          21.219265309149932 48.266786794162286 0 25.989900495501132 -30.673962513745963 0
          -14.741048879365302 -30.369965831724773 0 33.206792723445574 45.25947670903301 0
          26.73700517552618 36.1968809297727 0 -4.433626259916984 -16.731616061562868 0
          33.82599634129042 5.430878965379037 0 -37.91344272052366 -28.781627030961573 0
          -0.8760744559602713 -9.034520229977083 0 25.951148963832622 -14.29357740625877 0
          27.17860558051683 48.15404052238152 0 34.61617221348607 33.462162550860555 0
          -13.28055184508198 -44.93740558320786 0 47.55616001461492 34.25892934866374 0
          36.946038841117556 -42.45015674570037 0 -46.76239316488481 11.393180618063838 0
          23.568028568935404 11.552780427737098 0 16.263007945057282 45.12644264060411 0
          -23.411248530157515 41.93857265065735 0 -38.160345232049345 -18.69342940760771 0
          37.21153998486223 -26.635630373860984 0 30.80584946405935 5.653176675427417 0
          44.35923105765637 0.370346282237378 0 16.64168251311186 -34.7034267378138 0
          47.322877480901255 13.376690736606477 0 -32.1350217035443 -42.58571958176201 0
          -0.5025219679409361 28.59799073613067 0 -3.5320261053794297 38.30316610148137 0
          14.736889949280638 40.32409694969634 0 -49.402638529229115 19.356180838194604 0
          8.508964450503598 -39.46387075781778 0 49.03198966734128 -27.000797471280585 0
          -16.70921662991016 18.938285128010065 0 46.14207459237997 -27.3400906744995 0
          42.424140585792586 37.62461911345025 0 -6.825547086494495 -2.911259141055119 0
          6.210247997996007 33.76154121673389 0 -35.16911208657487 13.927818279591207 0
          49.5593687100304 13.93941034113417 0 -6.0481675260535965 -47.161165000275155 0
          -41.68490984500472 3.0367185203014984 0 28.200151364646487 23.664522522360798 0
          -30.983903256438072 -23.817273645282434 0 -4.775523168997552 -3.9973115200368454 0
          17.36371431475763 -32.304692769073746 0 -31.21691646176371 -40.35131875297581 0
          -17.61253928181918 -32.96735050248542 0 -47.52659271635095 33.064298464373394 0
          -25.51716157275273 -35.79649925661745 0 -34.4558032257712 -19.698927528483058 0
          -46.64276824331557 -9.071061809886274 0 28.312364537561464 -5.662808823633235 0
          -48.25117889494449 -21.421563451189467 0 45.139670111270334 -32.86849758057289 0
          <InformationKey name="L2_NORM_RANGE" location="vtkDataArray" length="2">
            <Value index="0">
              2.9839152875
            </Value>
            <Value index="1">
              65.61664054
            </Value>
          </InformationKey>
        </DataArray>
        <DataArray type="Float64" Name="force" NumberOfComponents="3" format="ascii" RangeMin="0.49999999999999994" RangeMax="0.5">
          -0.46908674430487896 -0.17308271524750563 0 -0.0922260326905111 -0.4914207554572444 0
          -0.21438242502661883 -0.451708064838017 0 0.0074151797104228916 0.49994501208619146 0
          -0.3830778857744459 0.3213274551459625 0 0.39869485827685763 0.3017323482551985 0
          0.4948115583942366 -0.0718437309684499 0 0.2758768192803641 0.4170035738261116 0
          0.4862120454879974 -0.11660980585858792 0 -0.20780214042782186 -0.4547727679112018 0
          -0.4273535667127644 0.25955525234115145 0 -0.4948404355163738 -0.07164456279415421 0
          0.0977056375932366 -0.49036069212621347 0 -0.29871710314008304 0.4009589658451311 0
          0.4386811732039701 0.2399142102427207 0 0.4985670326689043 -0.037827423064804466 0
          -0.3714264288837669 -0.3347273635761678 0 -0.4999575959399261 -0.006511701925731412 0
          0.4999978176456776 0.0014772777530878192 0 -0.40392787186770746 -0.2946901327299998 0
          0.3668924840772689 0.33969089644500483 0 0.32153482698543384 -0.3829038456785817 0
          -0.4285730486735431 -0.2575366807867664 0 0.3168198058706997 0.38681418098106507 0
          -0.3797031967675749 -0.32530828818904123 0 -0.3411795426726207 0.3655085767279633 0
          0.43495776375312317 -0.2466003725684174 0 0.4665030750429624 0.17993021140281082 0
          -0.477596056834262 0.14799326503717788 0 -0.07737648840172741 -0.49397659766695157 0
          0.3898428698151362 0.31308551045089705 0 -0.4983931334636162 -0.04005352064822863 0
          -0.4953789652513644 0.06782094651718996 0 0.010123251811156043 0.49989750926841786 0
          0.44449395367622874 -0.22896533612159417 0 -0.136703536752913 0.4809492104570346 0
          0.2984370735488545 0.40116743777579406 0 -0.2798840769391333 -0.41432463537174485 0
          -0.3994250519758605 -0.30076507086774745 0 0.4573642335124671 0.20203454631214313 0
          -0.3080186283779451 0.3938585083150666 0 0.3032210048235792 -0.3975638593154299 0
          0.22376657674555 -0.44713367031747664 0 -0.49150508156151257 -0.09177556755047005 0
          -0.0860066673125324 0.4925473105984758 0 -0.3720573537064225 0.3340259354495905 0
          0.3537837291624905 -0.3533229018615713 0 -0.33986005882370685 0.366735791021747 0
          -0.24095831615537244 -0.4381085366385453 0 -0.4270051096916984 0.26012811516093487 0
          0.4012806845719078 -0.29828478370426653 0 0.37335794697540864 -0.33257156136733634 0
          0.4624764083401625 -0.19004097381560442 0 0.07472943678278757 0.49438397150203744 0
          -0.13539916877862793 0.4813180498319761 0 -0.49937008159387464 0.025090269207941895 0
          -0.4454731093679718 -0.22705441821297168 0 0.14342107891419564 0.4789889290193335 0
          -0.14062450097326012 -0.4798174129041396 0 0.45771288703904306 -0.2012434173790144 0
          -0.39544913822490074 -0.3059738209016963 0 -0.3693674361715974 -0.3369980669024986 0
          -0.4940387855961151 -0.076978427671107 0 0.35825584543113076 -0.34878754165598536 0
          0.37700485527527866 -0.3284316353502905 0 -0.4858522632790762 0.11809986565021664 0
          0.4977365497119186 0.04752185897957645 0 -0.45873315781327073 -0.19890673674530196 0
          -0.35110184738602973 0.35598805143166967 0 0.4601412169708317 0.1956273509624919 0
          -0.19484055112598708 0.46047492834781095 0 -0.01042827220953729 0.4998912393098361 0
          0.029201320150353455 0.4991465545323102 0 -0.015655905611836832 0.4997548325123763 0
          0.08605394723344745 -0.4925390524268538 0 -0.4605669228970686 0.1946229933310186 0
          -0.4534244888691241 -0.21072786454043876 0 0.1581276966385018 -0.474337044258407 0
          -0.17779199878079793 0.4673221642181427 0 0.16464343900966447 -0.4721149626850127 0
          -0.2337076232880041 0.4420189439572385 0 0.46785244560602524 -0.17639186245533328 0
          -0.3151005993366234 -0.3882159351413859 0 -0.45701663848774216 -0.20281960493345907 0
          -0.49765108520459994 -0.04840864999856961 0 0.14531074053407947 0.47841905134038865 0
          -0.4809706142538629 -0.13662821167043732 0 0.18752434139249746 -0.46350255812164626 0
          0.4976042852604673 0.048887373527522066 0 -0.04209028570026291 0.49822525814100416 0
          0.007254818508840901 -0.4999473648379435 0 -0.28447681689320936 -0.41118480109350763 0
          -0.48402853314743066 -0.12536498354463496 0 0.28774923085789883 -0.40890143083717334 0
          0.15094621792159688 0.4766709969099922 0 0.4515202072720466 0.2147777977934593 0
          -0.47824057364262995 0.145897065501566 0 0.4979770011388016 0.044932241617862384 0
          -0.49761674260593847 -0.04876040892214871 0 0.4794447708368674 -0.14188978721946027 0
          -0.38809321515490136 0.31525173488932845 0 0.28570575325184816 -0.4103318444366633 0
          -0.39351106138877523 -0.3084623876012756 0 0.499775113090013 -0.01499454353639026 0
          -0.3732221494432185 0.3327239503927901 0 -0.49940451609476855 -0.02439527216798528 0
          0.42454501612167206 0.26412407933819515 0 0.30254227456419236 -0.3980806100547034 0
          0.05957052301459762 -0.4964386697143639 0 -0.48761496817363015 -0.11059675769673215 0
          0.17696252901198414 0.4676368926054516 0 0.057673314714533075 -0.4966626508706271 0
          0.18722971717102407 -0.4636216485541398 0 0.48576167635110834 -0.11847191139067964 0
          0.03308235628520386 -0.49890435726962623 0 -0.08162434794640039 -0.49329247492975703 0
          -0.4154254858133712 -0.27824749008162597 0 -0.4258319122498105 -0.26204423769598467 0
          -0.38906272979057926 0.31405444159875 0 0.07343727106275344 -0.49457756441114037 0
          0.48077997896248 0.13729753030858677 0 0.08630445044822398 -0.4924952201116576 0
          0.3006734233255792 -0.39949404564483443 0 -0.10791531263227916 0.4882154087075473 0
          0.31397111729775734 -0.3891299750761921 0 -0.14593576608871847 -0.4782287655255577 0
          -0.473493860532347 0.16063487802521084 0 0.33731353901460115 -0.369079363277663 0
          -0.29468148043245806 0.40393418410693444 0 -0.48779701808720943 0.1097910248846719 0
          0.4010678383533748 0.29857091123977775 0 0.29114766927835767 0.40648866487736174 0
          0.3816811648583865 0.32298527581353487 0 -0.4999989494740591 -0.0010249511389863353 0
          -0.47030530776134893 0.16974368174251095 0 -0.48952501422838285 -0.10180992311509508 0
          0.2725145459237273 0.4192085665393596 0 0.38122702296949185 0.32352118471256025 0
          -0.33124057400870294 -0.3745392931728058 0 0.07329276845690738 0.4945989992831791 0
          0.017212553760541562 -0.499703640163888 0 0.49753594385388367 0.0495780654465773 0
          -0.4554279164315633 0.206362334099043 0 0.3522850838200671 0.35481716378705286 0
          0.4288362631647556 -0.2570981512864075 0 -0.4173450159014242 -0.27536001471208554 0
          -0.022254977946729645 0.49950447040701307 0 -0.4827287824961179 0.13028016944192125 0
          -0.2897202592612289 0.4075072654243189 0 0.3250772131248908 0.37990104699375904 0
          0.04713976512309936 -0.49777288249174345 0 0.1502165987320793 0.47690142950652337 0
          0.22920708529773023 0.44436934193227035 0 -0.0012949778630428413 -0.499998323029522 0
          <InformationKey name="L2_NORM_RANGE" location="vtkDataArray" length="2">
            <Value index="0">
              0.5
            </Value>
            <Value index="1">
              0.5
            </Value>
          </InformationKey>
        </DataArray>
        <DataArray type="Float64" Name="radius" format="ascii" RangeMin="1" RangeMax="1">
          1 1 1 1 1 1
          1 1 1 1 1 1
          1 1 1 1 1 1
          1 1 1 1 1 1
          1 1 1 1 1 1
          1 1 1 1 1 1
          1 1 1 1 1 1
          1 1 1 1 1 1
          1 1 1 1 1 1
          1 1 1 1 1 1
          1 1 1 1 1 1
          1 1 1 1 1 1
          1 1 1 1 1 1
          1 1 1 1 1 1
          1 1 1 1 1 1
          1 1 1 1 1 1
          1 1 1 1 1 1
          1 1 1 1 1 1
          1 1 1 1 1 1
          1 1 1 1 1 1
          1 1 1 1 1 1
          1 1 1 1 1 1
          1 1 1 1 1 1
          1 1 1 1 1 1
          1 1 1 1 1 1
          1 1 1 1
        </DataArray>
      </PointData>
      <CellData>
      </CellData>
      <Points>
        <DataArray type="Float32" Name="Points" NumberOfComponents="3" format="ascii" RangeMin="2.4726300121024916" RangeMax="67.69299470874383">
          -37.1506233215332 33.93671417236328 0 47.041133880615234 -27.95285415649414 0
          -19.163705825805664 4.382114410400391 0 -30.976322174072266 49.06952667236328 0
          49.04584884643555 46.65668487548828 0 22.711986541748047 48.49476623535156 0
          -39.072021484375 29.42566680908203 0 -20.326353073120117 -50.335044860839844 0
          -38.5861930847168 13.620450973510742 0 37.54464340209961 0.6055704951286316 0
          29.88441276550293 -13.16417121887207 0 -28.5692081451416 18.111095428466797 0
          -10.569324493408203 23.95142936706543 0 -2.795487642288208 -7.722685813903809 0
          -32.569828033447266 -19.139734268188477 0 29.59796714782715 -18.860198974609375 0
          37.07522964477539 -35.20398712158203 0 49.33574676513672 31.739412307739258 0
          -37.261871337890625 26.23575210571289 0 -1.278069257736206 15.680801391601562 0
          -37.8734016418457 -29.092697143554688 0 -44.930931091308594 -45.970115661621094 0
          -8.899794578552246 -4.1037797927856445 0 -0.9401410222053528 29.76584815979004 0
          41.88778305053711 30.798295974731445 0 21.105865478515625 -49.64547348022461 0
          20.51120376586914 14.594820022583008 0 -4.3472580909729 27.163818359375 0
          7.599848747253418 38.030364990234375 0 30.885292053222656 -47.71691131591797 0
          32.284420013427734 32.450016021728516 0 43.70512008666992 -8.739060401916504 0
          -7.932939529418945 8.012639045715332 0 -34.258968353271484 26.28636360168457 0
          -26.30426025390625 30.868619918823242 0 49.245906829833984 -17.015392303466797 0
          -20.591861724853516 -48.64338302612305 0 -29.069782257080078 40.636165618896484 0
          34.850120544433594 45.75404357910156 0 27.685867309570312 49.04893112182617 0
          -43.492088317871094 29.542667388916016 0 8.858224868774414 23.555130004882812 0
          19.2231502532959 18.133657455444336 0 -10.489265441894531 5.675009250640869 0
          -29.514421463012695 2.336564779281616 0 -9.588582992553711 -14.813444137573242 0
          9.699339866638184 -13.739259719848633 0 46.731666564941406 -34.75350570678711 0
          -10.558534622192383 -11.045547485351562 0 22.70756721496582 -11.282896041870117 0
          42.960269927978516 -5.983397960662842 0 35.371551513671875 11.66526985168457 0
          -37.50787353515625 -2.5211539268493652 0 -15.955408096313477 3.0332860946655273 0
          21.55755043029785 48.92962646484375 0 21.949621200561523 41.43889617919922 0
          0.565570592880249 5.869190216064453 0 0.07135528326034546 -4.039681434631348 0
          4.605246067047119 -5.262248992919922 0 35.243499755859375 10.502667427062988 0
          0.4709395170211792 47.49788284301758 0 -47.17990493774414 47.68915557861328 0
          -13.603483200073242 17.80296516418457 0 -14.833751678466797 35.16395568847656 0
          -45.52772903442383 15.880908966064453 0 24.73601531982422 -36.157867431640625 0
          48.44095230102539 -40.119930267333984 0 -22.165735244750977 30.363374710083008 0
          -42.39974594116211 12.864171028137207 0 -49.25973892211914 18.47175407409668 0
          3.14622163772583 -5.9760050773620605 0 -29.64421844482422 -36.04535675048828 0
          -11.341405868530273 26.72700309753418 0 -45.8646240234375 -24.958120346069336 0
          1.1554145812988281 32.829856872558594 0 48.26972961425781 32.24513626098633 0
          -19.52004051208496 -44.39236068725586 0 -24.413272857666016 3.7208638191223145 0
          38.61337661743164 -15.293074607849121 0 -47.17719650268555 -33.60623550415039 0
          37.85675811767578 -29.18191909790039 0 -23.206314086914062 -0.7998218536376953 0
          -27.404571533203125 -0.37458476424217224 0 44.88084411621094 15.252562522888184 0
          26.220516204833984 -6.582263469696045 0 4.963711738586426 -44.58673095703125 0
          -17.059917449951172 -9.539413452148438 0 40.854217529296875 31.400924682617188 0
          -24.406116485595703 -36.43039321899414 0 -1.0284100770950317 -11.53296184539795 0
          21.38272476196289 -21.132278442382812 0 11.806775093078613 31.25227928161621 0
          -18.905529022216797 -12.174358367919922 0 -15.500214576721191 31.311777114868164 0
          17.190101623535156 -11.926916122436523 0 -4.281135559082031 -19.587011337280273 0
          40.880516052246094 -1.3023263216018677 0 25.502382278442383 -39.11399459838867 0
          -10.460381507873535 37.13912582397461 0 -13.567553520202637 41.90217971801758 0
          5.209235668182373 -35.951011657714844 0 -30.167043685913086 45.26179122924805 0
          49.74552917480469 -26.427520751953125 0 -48.224117279052734 -11.11229133605957 0
          27.89696502685547 -2.755343198776245 0 3.7743780612945557 -48.17349624633789 0
          40.17853927612305 -29.75904083251953 0 38.84101486206055 -5.520761013031006 0
          -35.0123291015625 -26.025955200195312 0 29.897930145263672 -3.052377939224243 0
          -41.14122009277344 14.45753288269043 0 13.561301231384277 8.276985168457031 0
          23.010034561157227 -14.474517822265625 0 18.4417724609375 21.424488067626953 0
          -33.66211700439453 -36.20024108886719 0 -4.970010757446289 -46.16349792480469 0
          29.73373794555664 -33.065101623535156 0 33.220733642578125 -17.149898529052734 0
          15.473417282104492 -7.89058256149292 0 28.151018142700195 -38.8331298828125 0