<?xml version="1.0"?>
<VTKFile type="PolyData" version="0.1" byte_order="LittleEndian" header_type="UInt32" compressor="vtkZLibDataCompressor">
  <PolyData>
    <Piece NumberOfPoints="154" NumberOfVerts="0" NumberOfLines="0" NumberOfStrips="0" NumberOfPolys="0">
      <PointData>
        <DataArray type="Int32" Name="id" format="ascii" RangeMin="0" RangeMax="153">
          0 1 2 3 4 5
          6 7 8 9 10 11
          12 13 14 15 16 17
          18 19 20 21 22 23
          24 25 26 27 28 29
          30 31 32 33 34 35
          36 37 38 39 40 41
          42 43 44 45 46 47
          48 49 50 51 52 53
          54 55 56 57 58 59
          60 61 62 63 64 65
          66 67 68 69 70 71
          72 73 74 75 76 77
          78 79 80 81 82 83
          84 85 86 87 88 89
          90 91 92 93 94 95
          96 97 98 99 100 101
          102 103 104 105 106 107
          108 109 110 111 112 113
          114 115 116 117 118 119
          120 121 122 123 124 125
          126 127 128 129 130 131
          132 133 134 135 136 137
          138 139 140 141 142 143
          144 145 146 147 148 149
          150 151 152 153
        </DataArray>
        <DataArray type="Float64" Name="director" NumberOfComponents="3" format="ascii" RangeMin="0.9999999999999999" RangeMax="1">
          -0.8990887099695218 -0.437766480678159 0 -0.1415600439510962 -0.9899296712173868 0
          -0.44415094676373684 -0.8959519721998921 0 -0.0014946039917969783 0.9999988830788301 0
          -0.7818686552461844 0.623443185818502 0 0.810599529630691 0.5856008901653945 0
          0.9904364901191344 -0.13796941342373592 0 0.6408494673369881 0.76766656838363 0
          0.9598277907095408 -0.28058975779889367 0 -0.439794155463882 -0.898098603060828 0
          -0.9028701661749633 0.42991332036957663 0 -0.9962937095687588 -0.08601653488557685 0
          0.19397852196056214 -0.9810057762408924 0 -0.6697673697672335 0.7425709867716904 0
          0.8841163855957368 0.4672667511402139 0 0.9999534292057354 -0.009650876628078927 0
          -0.7369622105378378 -0.675933946653949 0 -0.9953471331966098 -0.09635395392660413 0
          0.9987621682938684 -0.04974063916889688 0 -0.7994391699769634 -0.6007470461904443 0
          0.68022798606453 0.7330006050301687 0 0.5876596517232037 -0.809108233635379 0
          -0.8628003622869465 -0.5055447901398193 0 0.6504471269101877 0.7595515355091332 0
          -0.7758687230428629 -0.6308943846665916 0 -0.6861865245240516 0.7274256343858134 0
          0.934040001460117 -0.35716841359838164 0 0.9404471299928604 0.33993998836293443 0
          -0.972278462916445 0.2338259834766765 0 -0.1694456889501854 -0.985539526602661 0
          0.7169952598873134 0.6970780424738137 0 -0.9868275902587155 -0.16177548363141073 0
          -0.9885471258117241 0.15091249136297274 0 -0.01703254314976436 0.9998549357151023 0
          0.8737575833102968 -0.4863616818867926 0 -0.35565953017416024 0.9346155886760587 0
          0.6607297729443223 0.7506238519691099 0 -0.48995579517792437 -0.8717472791879352 0
          -0.8159741657926568 -0.5780883676039311 0 0.9258416469893216 0.3779116890228463 0
          -0.6218369546320639 0.7831467307305321 0 0.5412674635525062 -0.8408504818928489 0
          0.5320834552253467 -0.8466919136707616 0 -0.9729315298131695 -0.23109357043285633 0
          -0.21867116106282847 0.9757986079716626 0 -0.7637076729912028 0.6455622279953824 0
          0.6852241443055587 -0.7283322538929022 0 -0.6516700332193389 0.7585025825954093 0
          -0.5426343051199528 -0.8399690535412516 0 -0.8244827292403749 0.5658871169980305 0
          0.7369744688485778 -0.6759205813299051 0 0.6808615466179968 -0.7324121478627654 0
          0.9506792979216528 -0.31017555110484324 0 0.14518787080067225 0.9894041045863754 0
          -0.2450424232555837 0.9695123572214185 0 -0.9930473609050848 0.11771550025143745 0
          -0.921237919220209 -0.38899960949957213 0 0.2814988362610688 0.9595615692511158 0
          -0.2397666469527609 -0.9708305490707584 0 0.9008917018529998 -0.4340439396333114 0
          -0.8500770612073946 -0.5266583237821267 0 -0.7595180980517071 -0.650486171053557 0
          -0.9762484570026544 -0.21665398726987814 0 0.6853961949165855 -0.728170348197361 0
          0.7833055702155075 -0.6216368583581243 0 -0.9312794467305292 0.36430563006530575 0
          0.9982559521123547 -0.05903434654721048 0 -0.9166898950750169 -0.39959934467833474 0
          -0.7656856539869641 0.6432149557329611 0 0.9017190105767133 0.4323225947883746 0
          -0.27874956720468486 0.9603638262571123 0 -0.04242983466655749 0.9990994490690948 0
          0.07233984162888707 0.9973800415654543 0 -0.07710310369791092 0.9970231248071176 0
          0.191859511254209 -0.9814224003665781 0 -0.9295252342382584 0.3687585102940824 0
          -0.9012697306916557 -0.43325843620060117 0 0.16014164330545924 -0.9870940452051299 0
          -0.36111800330649313 0.9325201272293975 0 0.2281389456129404 -0.9736285849822898 0
          -0.49525022797539875 0.8687503736346337 0 0.9273331844470745 -0.3742367766845587 0
          -0.6838394553889764 -0.7296325097289101 0 -0.8531085351378086 -0.5217334829920565 0
          -0.9956133465666123 -0.09356315588109834 0 0.26268529138131724 0.9648815666660403 0
          -0.9650061947919711 -0.26222708481985657 0 0.31005904780285254 -0.9507173012392214 0
          0.9998738841031027 -0.015881306261609485 0 0.07591279149375811 0.9971144608757939 0
          -0.00550285667867353 -0.9999848591695646 0 -0.6233800167108527 -0.7819190205932945 0
          -0.9616797056992421 -0.2741753884764623 0 0.43667277136429605 -0.8996204148133952 0
          0.17351201474361622 0.9848317525037519 0 0.9177223828668446 0.3972223910924466 0
          -0.9477415259181386 0.3190391826255173 0 0.9978062737887889 0.06620151046412964 0
          -0.9973667736760005 -0.07252253971783995 0 0.9716239657802824 -0.2365309052140893 0
          -0.6935451654542983 0.7204131477665923 0 0.5896302421954247 -0.8076733111156792 0
          -0.7136728918579199 -0.700479124190831 0 0.999779223576239 -0.021011999078919538 0
          -0.7653489636729123 0.6436155403692481 0 -0.9919238472848513 -0.12683485793589674 0
          0.8807860238055375 0.47351449847795707 0 0.5552794394299585 -0.8316638408313488 0
          0.05484982340172568 -0.9984946153449199 0 -0.9740526379652298 -0.2263215819867319 0
          0.33212445234274635 0.943235574051377 0 0.1124380759704946 -0.9936587337069268 0
          0.3966695363106115 -0.9179614801085743 0 0.9662328692955461 -0.2576704140814312 0
          0.07090851302530148 -0.9974828233010034 0 -0.10251068103865482 -0.9947319037172736 0
          -0.8237731965904117 -0.5669195009692425 0 -0.8216812221171698 -0.569947338988467 0
          -0.9032463740219444 0.42912234597630733 0 0.2234034398279942 -0.9747260656579467 0
          0.955591361282952 0.29469501224383615 0 0.08158336844604142 -0.9966665209552278 0
          0.7265952473642936 -0.6870657512259077 0 -0.17093848257180802 0.9852817034615267 0
          0.6757661703774154 -0.7371160580081281 0 -0.29160175783622755 -0.9565398135084718 0
          -0.9759658604396608 0.21792347110000013 0 0.6178714949352573 -0.7862790953258711 0
          -0.5032012543360909 0.8641692528866002 0 -0.9659712464095643 0.2586494753715013 0
          0.7562582702128655 0.6542732064930097 0 0.7580080489585665 0.6522451975400259 0
          0.8091548283128035 0.5875954933609324 0 -0.9975215730176363 0.07036129166253606 0
          -0.9083096704293593 0.4182983894357097 0 -0.9867427918362016 -0.16229190601905727 0
          0.5794934094032418 0.8149769251078258 0 0.766832684450735 0.6418470488037469 0
          -0.662303480568792 -0.749235676957834 0 0.2062001941072943 0.9785098261898622 0
          0.17327772252833956 -0.9848730024096466 0 0.967995837076454 0.25096625152130553 0
          -0.8735864784774366 0.48666894766503344 0 0.7016181946926554 0.7125530919701486 0
          0.8259494468049251 -0.5637441896131952 0 -0.8752488045485214 -0.48367295783037545 0
          -0.0763514058199923 0.9970809710496489 0 -0.9774519480055117 0.21115797247613086 0
          -0.5211077796755625 0.8534908798350486 0 0.665609862126351 0.7462998803699087 0
          0.03850231166422728 -0.9992585110953575 0 0.3082227003152294 0.9513142314768492 0
          0.4039767378393192 0.914769257946889 0 0.0525552556641751 -0.9986180176133781 0
          <InformationKey name="L2_NORM_RANGE" location="vtkDataArray" length="2">
            <Value index="0">
              1
            </Value>
            <Value index="1">
              1
            </Value>
          </InformationKey>
        </DataArray>
        <DataArray type="Float64" Name="velocity" NumberOfComponents="3" format="ascii" RangeMin="2.98391528750295" RangeMax="65.61664053985334">
          20.472372037415383 -30.489259884928693 0 -7.778161120144524 43.605506408926914 0
          -35.778279556590725 14.318100471258902 0 -2.7267860528004704 -6.306708942777526 0
          -25.56803597993237 0.5919415230237348 0 40.69440930810454 -42.34960265147567 0
          21.390392053252754 11.720491675449018 0 -31.091580543867785 -10.301819378431787 0
          -22.233594277397 35.80993014386058 0 40.8936574712134 11.727908496204755 0
          -31.918129728714472 1.502371966558826 0 32.46317064138093 -14.067556233339687 0
          31.61170207931397 -20.66117562390716 0 -32.788218903188394 -0.7210412736466054 0
          -30.467523066969363 36.43074923190564 0 -29.58028331655805 11.627227611362315 0
          37.80505508071815 -10.753091333426255 0 44.65772551607054 -33.330173144632525 0
          47.18774005931614 6.396489460552942 0 9.836891189866492 -36.87781496106794 0
          6.677739541459459 5.438027088135769 0 -18.951003944933063 -37.93510690561732 0
          23.77908201111339 -25.727634747998636 0 32.285914726045576 -31.45240287607238 0
          -18.732306147503376 38.172541468590836 0 17.42129460906331 23.929755673071398 0
          -43.74567596165927 -36.843843838172035 0 -41.00470913383489 -49.1685554695042 0
          -4.3489588147394045 13.430332075080756 0 2.9762992276979077 -0.21305715242312573 0
          -16.420210149222868 -24.717665071237764 0 -26.63245586108499 -32.68369682188443 0
          9.59810303037343 22.68931438280859 0 37.757309281314306 20.71597266757422 0
          -26.523439665569285 -2.200425364398683 0 -48.17882370239545 24.733119867345934 0
          15.472358145094617 -42.19330576503555 0 -2.7230899171649696 49.647506705142575 0
          3.209752212846098 39.943600631846664 0 27.290092728339346 -29.624030405099575 0
          40.710862227344634 -12.518743865476708 0 34.808888796398136 -17.330075407408792 0
          -17.326333983387784 15.921061981020685 0 8.676498234140595 -45.101679767889145 0
          26.99656655139428 -0.8247828969564566 0 -1.181598492863479 -7.087342925864128 0
          -10.527228461045638 27.645380145270124 0 47.47543864880045 24.850515939083976 0
          13.45020038299144 -42.781974126121774 0 13.33632968921519 2.89206325620421 0
          -20.383234879262602 -17.467213088655853 0 13.111992425538233 49.45054225750374 0
          1.6047826830209004 22.445391370448775 0 -25.442525168919026 -16.766088433362327 0
          24.860911549332883 18.296648546241826 0 18.127137052491975 -42.11576276898946 0
          -4.106371249565804 19.81468592825003 0 -43.2115168522386 -43.085994704941484 0
          2.7042817825837204 -23.795120132132308 0 -1.6624837545658195 -36.91945356486498 0
          -40.55592314206473 -37.96183180819797 0 46.98372058379586 25.62816454897687 0
          -23.182362140209666 22.4905983535036 0 -8.42374893276238 -2.5281598168396826 0
          -44.45585735866184 11.374414308737222 0 -0.9380815156004232 40.44748670579848 0
          43.5214270198436 41.82766196839604 0 -19.617472876146607 29.010177679462174 0
          -27.377259211045168 -5.104813753149479 0 1.0108912986547693 -26.93680745999526 0
          21.18807799653547 48.4452609761332 0 15.521324819791857 -22.733301715898534 0
          -3.0984436752635744 -49.699879474370995 0 -5.357606698271908 47.09441502974741 0
          -19.533649987483585 -28.48909553641595 0 -25.241492794096537 30.645102659141713 0
          -1.3628901407151872 -9.249808436218693 0 -28.437070584076316 4.0252086974848424 0
          22.302423751473526 -21.630608392707323 0 4.286209731170565 25.592468486596516 0
          -16.80227135673981 30.176297340482108 0 35.70724318896097 -48.51082997011254 0
          38.494266527440914 9.308694076898924 0 -41.37827709570729 42.48759424258512 0
          41.371957205314274 48.07567751376408 0 40.00221093710812 44.971458396046486 0
          43.45219546574209 -49.16757290067578 0 27.77940311086799 -47.40411222574361 0
          8.787704962513757 14.978077069606684 0 -17.176354508003442 -38.89206379839693 0
          -37.572734230027905 47.39150589914381 0 3.322947059262674 16.230028184641725 0
          20.82576325094061 -43.12614201683975 0 -29.404442159877867 -6.6570323329381935 0
          -48.88074135310182 -43.07374742736768 0 -15.693819004659524 -18.776991949103287 0
          49.2742614956165 -23.093566379026992 0 35.70662412955289 -14.438908494432013 0
          24.676827977366614 34.48562696853686 0 -28.28613766609157 46.49521791482232 0
          21.219265309149932 48.266786794162286 0 25.989900495501132 -30.673962513745963 0
          -14.741048879365302 -30.369965831724773 0 33.206792723445574 45.25947670903301 0
          26.73700517552618 36.1968809297727 0 -4.433626259916984 -16.731616061562868 0
          33.82599634129042 5.430878965379037 0 -37.91344272052366 -28.781627030961573 0
          -0.8760744559602713 -9.034520229977083 0 25.951148963832622 -14.29357740625877 0
          27.17860558051683 48.15404052238152 0 34.61617221348607 33.462162550860555 0
          -13.28055184508198 -44.93740558320786 0 47.55616001461492 34.25892934866374 0
          36.946038841117556 -42.45015674570037 0 -46.76239316488481 11.393180618063838 0
          23.568028568935404 11.552780427737098 0 16.263007945057282 45.12644264060411 0
          -23.411248530157515 41.93857265065735 0 -38.160345232049345 -18.69342940760771 0
          37.21153998486223 -26.635630373860984 0 30.80584946405935 5.653176675427417 0
          44.35923105765637 0.370346282237378 0 16.64168251311186 -34.7034267378138 0
          47.322877480901255 13.376690736606477 0 -32.1350217035443 -42.58571958176201 0
          -0.5025219679409361 28.59799073613067 0 -3.5320261053794297 38.30316610148137 0
          14.736889949280638 40.32409694969634 0 -49.402638529229115 19.356180838194604 0
          8.508964450503598 -39.46387075781778 0 49.03198966734128 -27.000797471280585 0
          -16.70921662991016 18.938285128010065 0 46.14207459237997 -27.3400906744995 0
          42.424140585792586 37.62461911345025 0 -6.825547086494495 -2.911259141055119 0
          6.210247997996007 33.76154121673389 0 -35.16911208657487 13.927818279591207 0
          49.5593687100304 13.93941034113417 0 -6.0481675260535965 -47.161165000275155 0
          -41.68490984500472 3.0367185203014984 0 28.200151364646487 23.664522522360798 0
          -30.983903256438072 -23.817273645282434 0 -4.775523168997552 -3.9973115200368454 0
          17.36371431475763 -32.304692769073746 0 -31.21691646176371 -40.35131875297581 0
          -17.61253928181918 -32.96735050248542 0 -47.52659271635095 33.064298464373394 0
          -25.51716157275273 -35.79649925661745 0 -34.4558032257712 -19.698927528483058 0
          -46.64276824331557 -9.071061809886274 0 28.312364537561464 -5.662808823633235 0
          -48.25117889494449 -21.421563451189467 0 45.139670111270334 -32.86849758057289 0
          <InformationKey name="L2_NORM_RANGE" location="vtkDataArray" length="2">
            <Value index="0">
              2.9839152875
            </Value>
            <Value index="1">
              65.61664054
            </Value>
          </InformationKey>
        </DataArray>
        <DataArray type="Float64" Name="force" NumberOfComponents="3" format="ascii" RangeMin="0.49999999999999994" RangeMax="0.5">
          -0.4495443549847609 -0.2188832403390795 0 -0.0707800219755481 -0.4949648356086934 0
          -0.22207547338186842 -0.44797598609994604 0 -0.0007473019958984891 0.49999944153941506 0
          -0.3909343276230922 0.311721592909251 0 0.4052997648153455 0.29280044508269726 0
          0.4952182450595672 -0.06898470671186796 0 0.32042473366849406 0.383833284191815 0
          0.4799138953547704 -0.14029487889944683 0 -0.219897077731941 -0.449049301530414 0
          -0.45143508308748165 0.21495666018478832 0 -0.4981468547843794 -0.04300826744278843 0
          0.09698926098028107 -0.4905028881204462 0 -0.33488368488361675 0.3712854933858452 0
          0.4420581927978684 0.23363337557010694 0 0.4999767146028677 -0.004825438314039463 0
          -0.3684811052689189 -0.3379669733269745 0 -0.4976735665983049 -0.048176976963302066 0
          0.4993810841469342 -0.02487031958444844 0 -0.3997195849884817 -0.30037352309522214 0
          0.340113993032265 0.36650030251508436 0 0.29382982586160183 -0.4045541168176895 0
          -0.4314001811434732 -0.25277239506990967 0 0.32522356345509384 0.3797757677545666 0
          -0.38793436152143146 -0.3154471923332958 0 -0.3430932622620258 0.3637128171929067 0
          0.4670200007300585 -0.17858420679919082 0 0.4702235649964302 0.16996999418146722 0
          -0.4861392314582225 0.11691299173833825 0 -0.0847228444750927 -0.4927697633013305 0
          0.3584976299436567 0.34853902123690683 0 -0.49341379512935774 -0.08088774181570536 0
          -0.49427356290586205 0.07545624568148637 0 -0.00851627157488218 0.49992746785755116 0
          0.4368787916551484 -0.2431808409433963 0 -0.17782976508708012 0.4673077943380293 0
          0.33036488647216117 0.37531192598455493 0 -0.24497789758896218 -0.4358736395939676 0
          -0.4079870828963284 -0.28904418380196556 0 0.4629208234946608 0.18895584451142314 0
          -0.31091847731603195 0.39157336536526605 0 0.2706337317762531 -0.42042524094642447 0
          0.26604172761267336 -0.4233459568353808 0 -0.4864657649065848 -0.11554678521642817 0
          -0.10933558053141423 0.4878993039858313 0 -0.3818538364956014 0.3227811139976912 0
          0.34261207215277933 -0.3641661269464511 0 -0.32583501660966946 0.37925129129770463 0
          -0.2713171525599764 -0.4199845267706258 0 -0.41224136462018746 0.28294355849901526 0
          0.3684872344242889 -0.33796029066495253 0 0.3404307733089984 -0.3662060739313827 0
          0.4753396489608264 -0.15508777555242162 0 0.07259393540033612 0.4947020522931877 0
          -0.12252121162779185 0.48475617861070924 0 -0.4965236804525424 0.05885775012571873 0
          -0.4606189596101045 -0.19449980474978606 0 0.1407494181305344 0.4797807846255579 0
          -0.11988332347638045 -0.4854152745353792 0 0.4504458509264999 -0.2170219698166557 0
          -0.4250385306036973 -0.26332916189106337 0 -0.37975904902585356 -0.3252430855267785 0
          -0.4881242285013272 -0.10832699363493907 0 0.34269809745829277 -0.3640851740986805 0
          0.39165278510775375 -0.31081842917906216 0 -0.4656397233652646 0.18215281503265288 0
          0.49912797605617737 -0.02951717327360524 0 -0.45834494753750843 -0.19979967233916737 0
          -0.38284282699348204 0.32160747786648053 0 0.45085950528835667 0.2161612973941873 0
          -0.13937478360234243 0.4801819131285561 0 -0.021214917333278745 0.4995497245345474 0
          0.036169920814443535 0.4986900207827272 0 -0.03855155184895546 0.4985115624035588 0
          0.0959297556271045 -0.49071120018328906 0 -0.4647626171191292 0.1843792551470412 0
          -0.45063486534582786 -0.21662921810030059 0 0.08007082165272962 -0.49354702260256494 0
          -0.18055900165324656 0.46626006361469874 0 0.1140694728064702 -0.4868142924911449 0
          -0.24762511398769937 0.43437518681731685 0 0.46366659222353723 -0.18711838834227934 0
          -0.3419197276944882 -0.36481625486445507 0 -0.4265542675689043 -0.26086674149602823 0
          -0.49780667328330613 -0.04678157794054917 0 0.13134264569065862 0.48244078333302015 0
          -0.48250309739598557 -0.13111354240992829 0 0.15502952390142627 -0.4753586506196107 0
          0.49993694205155137 -0.007940653130804743 0 0.037956395746879056 0.49855723043789696 0
          -0.002751428339336765 -0.4999924295847823 0 -0.3116900083554264 -0.3909595102966473 0
          -0.48083985284962105 -0.13708769423823114 0 0.21833638568214803 -0.4498102074066976 0
          0.08675600737180811 0.49241587625187594 0 0.4588611914334223 0.1986111955462233 0
          -0.4738707629590693 0.15951959131275864 0 0.49890313689439447 0.03310075523206482 0
          -0.49868338683800023 -0.036261269858919976 0 0.4858119828901412 -0.11826545260704464 0
          -0.34677258272714917 0.36020657388329613 0 0.29481512109771235 -0.4038366555578396 0
          -0.35683644592895997 -0.3502395620954155 0 0.4998896117881195 -0.010505999539459769 0
          -0.38267448183645614 0.32180777018462403 0 -0.49596192364242564 -0.06341742896794837 0
          0.44039301190276875 0.23675724923897853 0 0.27763971971497925 -0.4158319204156744 0
          0.02742491170086284 -0.49924730767245995 0 -0.4870263189826149 -0.11316079099336596 0
          0.16606222617137317 0.4716177870256885 0 0.0562190379852473 -0.4968293668534634 0
          0.19833476815530576 -0.45898074005428713 0 0.48311643464777304 -0.1288352070407156 0
          0.03545425651265074 -0.4987414116505017 0 -0.05125534051932741 -0.4973659518586368 0
          -0.41188659829520585 -0.28345975048462124 0 -0.4108406110585849 -0.2849736694942335 0
          -0.4516231870109722 0.21456117298815366 0 0.1117017199139971 -0.48736303282897336 0
          0.477795680641476 0.14734750612191808 0 0.04079168422302071 -0.4983332604776139 0
          0.3632976236821468 -0.34353287561295387 0 -0.08546924128590401 0.49264085173076333 0
          0.3378830851887077 -0.36855802900406404 0 -0.14580087891811377 -0.4782699067542359 0
          -0.4879829302198304 0.10896173555000006 0 0.30893574746762864 -0.3931395476629356 0
          -0.25160062716804543 0.4320846264433001 0 -0.48298562320478217 0.12932473768575065 0
          0.37812913510643276 0.32713660324650484 0 0.3790040244792833 0.32612259877001293 0
          0.40457741415640175 0.2937977466804662 0 -0.49876078650881817 0.03518064583126803 0
          -0.45415483521467964 0.20914919471785484 0 -0.4933713959181008 -0.08114595300952863 0
          0.2897467047016209 0.4074884625539129 0 0.3834163422253675 0.32092352440187344 0
          -0.331151740284396 -0.374617838478917 0 0.10310009705364714 0.4892549130949311 0
          0.08663886126416978 -0.4924365012048233 0 0.483997918538227 0.12548312576065276 0
          -0.4367932392387183 0.24333447383251672 0 0.3508090973463277 0.3562765459850743 0
          0.41297472340246255 -0.2818720948065976 0 -0.4376244022742607 -0.24183647891518772 0
          -0.03817570290999615 0.49854048552482444 0 -0.48872597400275586 0.10557898623806543 0
          -0.26055388983778127 0.4267454399175243 0 0.3328049310631755 0.37314994018495434 0
          0.01925115583211364 -0.49962925554767873 0 0.1541113501576147 0.4756571157384246 0
          0.2019883689196596 0.4573846289734445 0 0.02627762783208755 -0.49930900880668905 0
          <InformationKey name="L2_NORM_RANGE" location="vtkDataArray" length="2">
            <Value index="0">
              0.5
            </Value>
            <Value index="1">
              0.5
            </Value>
          </InformationKey>
        </DataArray>
        <DataArray type="Float64" Name="radius" format="ascii" RangeMin="1" RangeMax="1">
          1 1 1 1 1 1
          1 1 1 1 1 1
          1 1 1 1 1 1
          1 1 1 1 1 1
          1 1 1 1 1 1
          1 1 1 1 1 1
          1 1 1 1 1 1
          1 1 1 1 1 1
          1 1 1 1 1 1
          1 1 1 1 1 1
          1 1 1 1 1 1
          1 1 1 1 1 1
          1 1 1 1 1 1
          1 1 1 1 1 1
          1 1 1 1 1 1
          1 1 1 1 1 1
          1 1 1 1 1 1
          1 1 1 1 1 1
          1 1 1 1 1 1
          1 1 1 1 1 1
          1 1 1 1 1 1
          1 1 1 1 1 1
          1 1 1 1 1 1
          1 1 1 1 1 1
          1 1 1 1 1 1
          1 1 1 1
        </DataArray>
      </PointData>
      <CellData>
      </CellData>
      <Points>
        <DataArray type="Float32" Name="Points" NumberOfComponents="3" format="ascii" RangeMin="2.4184341076071925" RangeMax="67.64943818294066">
          -37.19870376586914 33.93297576904297 0 46.97596740722656 -28.02116584777832 0
          -19.126007080078125 4.438061714172363 0 -30.968374252319336 48.93752670288086 0
          48.977291107177734 46.66552734375 0 22.64056968688965 48.590450286865234 0
          -39.04852294921875 29.48452377319336 0 -20.3040714263916 -50.42433166503906 0
          -38.48392105102539 13.454000473022461 0 37.56692886352539 0.6922659873962402 0
          30.020492553710938 -13.21489143371582 0 -28.48080062866211 18.144166946411133 0
          -10.635322570800781 24.00398826599121 0 -2.854914426803589 -7.6995978355407715 0
          -32.549503326416016 -19.321542739868164 0 29.583330154418945 -18.904457092285156 0
          37.03214645385742 -35.30447769165039 0 49.36783218383789 31.641807556152344 0
          -37.25476837158203 26.226238250732422 0 -1.258754014968872 15.625884056091309 0
          -37.91062545776367 -29.1391658782959 0 -44.97713088989258 -46.187156677246094 0
          -8.879530906677246 -4.041673183441162 0 -0.8684133887290955 29.837200164794922 0
          41.81266784667969 30.75394058227539 0 21.048341751098633 -49.63026428222656 0
          20.432209014892578 14.519822120666504 0 -4.241745471954346 27.124677658081055 0
          7.694762229919434 37.951385498046875 0 30.74932861328125 -47.6827392578125 0
          32.3702278137207 32.24302291870117 0 43.6435546875 -8.690937995910645 0
          -8.028877258300781 8.060513496398926 0 -34.312469482421875 26.42148208618164 0
          -26.395462036132812 30.750751495361328 0 49.27720260620117 -16.99517250061035 0
          -20.660686492919922 -48.59767532348633 0 -29.019290924072266 40.436004638671875 0
          34.87644958496094 45.74189376831055 0 27.71127700805664 49.098114013671875 0
          -43.47230529785156 29.41880989074707 0 8.904850006103516 23.54863739013672 0
          19.197965621948242 18.2144832611084 0 -10.485749244689941 5.579325199127197 0
          -29.416118621826172 2.2864606380462646 0 -9.544443130493164 -14.827753067016602 0
          9.645305633544922 -13.820975303649902 0 46.833133697509766 -34.63888168334961 0
          -10.578542709350586 -11.085172653198242 0 22.686603546142578 -11.33771800994873 0
          42.91206359863281 -5.933804035186768 0 35.355342864990234 11.604939460754395 0
          -37.391929626464844 -2.5763652324676514 0 -15.928228378295898 2.8778955936431885 0
          21.48446273803711 48.84264373779297 0 21.9440860748291 41.44013214111328 0
          0.46461620926856995 5.86920166015625 0 0.04598117992281914 -4.070057392120361 0
          4.545671463012695 -5.518937110900879 0 35.184539794921875 10.563468933105469 0
          0.5308144688606262 47.470767974853516 0 -47.05192184448242 47.73383331298828 0
          -13.600164413452148 17.804401397705078 0 -14.905553817749023 35.16004943847656 0
          -45.507843017578125 15.9022855758667 0 24.69645881652832 -36.17782974243164 0
          48.29912567138672 -40.16538619995117 0 -22.1049747467041 30.399234771728516 0
          -42.25714111328125 12.910970687866211 0 -49.259464263916016 18.478801727294922 0
          3.1094560623168945 -5.873549938201904 0 -29.743980407714844 -36.10068130493164 0
          -11.340192794799805 26.754636764526367 0 -45.970298767089844 -24.87321662902832 0
          1.255987524986267 32.768341064453125 0 48.09957504272461 32.425228118896484 0
          -19.549467086791992 -44.34202575683594 0 -24.40443229675293 3.8390631675720215 0
          38.6328125 -15.352265357971191 0 -47.096134185791016 -33.65251159667969 0
          37.71427917480469 -29.26625633239746 0 -23.243709564208984 -0.7208710312843323 0
          -27.429121017456055 -0.5031851530075073 0 44.79595947265625 15.15246295928955 0
          26.309186935424805 -6.513701438903809 0 4.972594261169434 -44.619720458984375 0
          -17.149036407470703 -9.422506332397461 0 40.90946960449219 31.401254653930664 0
          -24.334068298339844 -36.41083526611328 0 -0.9441843628883362 -11.602821350097656 0
          21.327239990234375 -21.059993743896484 0 11.864704132080078 31.161479949951172 0
          -18.882604598999023 -12.19579029083252 0 -15.402935028076172 31.429950714111328 0
          17.300649642944336 -11.857646942138672 0 -4.276922702789307 -19.621549606323242 0
          40.901092529296875 -1.245581030845642 0 25.50335693359375 -39.0788459777832 0
          -10.495612144470215 37.29095458984375 0 -13.586414337158203 41.89299774169922 0
          5.157195091247559 -35.99729919433594 0 -30.23484230041504 45.272804260253906 0
          49.73735809326172 -26.412302017211914 0 -48.35097122192383 -11.006584167480469 0
          27.911592483520508 -2.7566425800323486 0 3.7718117237091064 -48.255855560302734 0
          39.99150848388672 -29.867143630981445 0 38.74174118041992 -5.4766526222229 0
          -34.93851089477539 -25.932653427124023 0 29.825000762939453 -3.0392580032348633 0
          -41.17403793334961 14.502531051635742 0 13.620231628417969 8.27845573425293 0
          23.06262969970703 -14.43733024597168 0 18.505403518676758 21.41221809387207 0
          -33.530494689941406 -36.27320098876953 0 -5.06273889541626 -46.15794372558594 0
          29.956645965576172 -33.004852294921875 0 33.22014617919922 -17.091590881347656 0
          15.588899612426758 -7.958559513092041 0 28.101043701171875 -38.80533981323242 0