<?xml version="1.0"?>
<VTKFile type="PolyData" version="0.1" byte_order="LittleEndian" header_type="UInt32" compressor="vtkZLibDataCompressor">
  <PolyData>
    <Piece NumberOfPoints="154" NumberOfVerts="0" NumberOfLines="0" NumberOfStrips="0" NumberOfPolys="0">
      <PointData>
        <DataArray type="Int32" Name="id" format="ascii" RangeMin="0" RangeMax="153">
          0 1 2 3 4 5
          6 7 8 9 10 11
          12 13 14 15 16 17
          18 19 20 21 22 23
          24 25 26 27 28 29
          30 31 32 33 34 35
          36 37 38 39 40 41
          42 43 44 45 46 47
          48 49 50 51 52 53
          54 55 56 57 58 59
          60 61 62 63 64 65
          66 67 68 69 70 71
          72 73 74 75 76 77
          78 79 80 81 82 83
          84 85 86 87 88 89
          90 91 92 93 94 95
          96 97 98 99 100 101
          102 103 104 105 106 107
          108 109 110 111 112 113
          114 115 116 117 118 119
          120 121 122 123 124 125
          126 127 128 129 130 131
          132 133 134 135 136 137
          138 139 140 141 142 143
          144 145 146 147 148 149
          150 151 152 153
        </DataArray>
        <DataArray type="Float64" Name="director" NumberOfComponents="3" format="ascii" RangeMin="0.9999999999999999" RangeMax="1">
          -0.874995321184447 -0.48413137463433037 0 -0.052258357899380936 -0.9986335984882845 0
          -0.4992046489517436 -0.8664841132213368 0 0.05696611199407171 0.9983761125368931 0
          -0.7404397770885324 0.6721227094103313 0 0.8390147915914229 0.54410861001348 0
          0.9683470190679841 -0.24960779367269173 0 0.7131621522345217 0.7009991045787611 0
          0.9852991204059659 -0.17083806170531768 0 -0.35825683946047343 -0.9336230700768874 0
          -0.8720210363895239 0.48946839744169446 0 -0.9884053606207615 -0.15183821355687258 0
          0.42850450769389137 -0.9035396432287937 0 -0.5572081390731157 0.8303728618823446 0
          0.9533613005101788 0.30183146073519357 0 0.9997445133675541 -0.022603273910484323 0
          -0.801165513306876 -0.5984428295900369 0 -0.9968474135575972 -0.07934251120004217 0
          0.9905306213340076 -0.13729198155633413 0 -0.7994202219169549 -0.6007722603368488 0
          0.7829479628787926 0.6220872024273999 0 0.7230251057604882 -0.6908217544635048 0
          -0.8701984645192725 -0.49270136223507693 0 0.7319451067074775 0.681363603934771 0
          -0.8131098024433138 -0.5821103410613793 0 -0.7613725546646172 0.6483146095866378 0
          0.9600839587868594 -0.2797119805802963 0 0.962437758940732 0.2715024128164267 0
          -0.9652485048892698 0.2613337402805639 0 -0.22682892085986642 -0.9739346182683664 0
          0.7215695730350713 0.69234193233545 0 -0.9871611575482115 -0.1597274210274336 0
          -0.9991002554935129 0.04241084145353892 0 -0.04974554503148684 0.9987619239586181 0
          0.8766839740596521 -0.4810667413436259 0 -0.5804857870063245 0.8142703795936875 0
          0.6669861800182978 0.7450700877532253 0 -0.45744654572189786 -0.8892371212489409 0
          -0.8216435824270116 -0.570001599521007 0 0.8857567113232906 0.46414981239439157 0
          -0.5335263349013595 0.8457834533535888 0 0.5251479674415468 -0.8510109354714616 0
          0.38671027029248145 -0.9222012615748885 0 -0.9784690022395873 -0.20639382659436903 0
          -0.02220874040728995 0.999753355508008 0 -0.7325404626289311 0.6807234905682275 0
          0.6483805253790549 -0.7613164219358339 0 -0.7378171208449888 0.6750006638426448 0
          -0.4593268254530059 -0.8882673400611236 0 -0.7351879804818028 0.6778632851505445 0
          0.7750883875279375 -0.6318528242552546 0 0.7915440311239957 -0.6111121392935791 0
          0.9071986920719004 -0.4207024282114773 0 0.2928526600172312 0.9561575809043361 0
          -0.23570485920409515 0.9718246855002077 0 -0.9796884626837739 0.2005255995734806 0
          -0.9377541748278818 -0.34729973739246994 0 0.3303022193801752 0.9438752268560345 0
          -0.1826384497618473 -0.9831801445658823 0 0.8695677290487009 -0.4938136942178549 0
          -0.8642457209433493 -0.503069909486853 0 -0.7136778148469856 -0.7004741084402991 0
          -0.9691022284018987 -0.24665942290225604 0 0.7335375847715285 -0.6796488885649358 0
          0.664773740057226 -0.7470447607274464 0 -0.9725051616749282 0.23288132281405005 0
          0.9997176261671403 -0.02376274249193212 0 -0.9265817122482827 -0.3760935130084548 0
          -0.8073299618412267 0.5901002734395598 0 0.9049277685590371 0.4255651932322025 0
          -0.20048482734961035 0.9796968071819959 0 -0.05464279014369634 0.9985059666748677 0
          0.08034720986546756 0.9967669365838909 0 -0.0674611181806145 0.9977219039060038 0
          0.11843609227173098 -0.992961677028576 0 -0.9052048340972508 0.4249755385042398 0
          -0.908134551945423 -0.41867843933367976 0 0.10918203841641423 -0.9940217716364349 0
          -0.39594757393478425 0.9182731177025485 0 0.21905775881669412 -0.9757118930822802 0
          -0.48601482319164474 0.8739505659006087 0 0.8869094563272367 -0.4619433041806379 0
          -0.6938387862507938 -0.7201303622914571 0 -0.8933700320878194 -0.4493216951888798 0
          -0.9980484466876346 -0.06244435974849749 0 0.28949843235573325 0.9571784878817393 0
          -0.9889479930304664 -0.14826283108389807 0 0.29188484958248495 -0.9564534670250352 0
          0.9997125197311901 0.02397661136847349 0 0.16997393109737338 0.9854485591583689 0
          0.17385977550694248 -0.9847704191641194 0 -0.761711018440308 -0.647916911638081 0
          -0.9623030537721055 -0.2719794711019202 0 0.3759334071300367 -0.9266466820766165 0
          0.13461825117279622 0.9908975357983175 0 0.8936760434628686 0.4487127470225836 0
          -0.9600430215144632 0.2798524554857076 0 0.9947289501440972 0.10253933755014286 0
          -0.9978393266791621 -0.06570143173840692 0 0.9692942557403424 -0.24590373276706406 0
          -0.6873257277498889 0.7263493264078144 0 0.706821722470215 -0.7073917250323462 0
          -0.6337451619604678 -0.7735418991183997 0 0.997790589899546 0.06643747969268403 0
          -0.7019657627440842 0.7122106906913965 0 -0.9978415481042485 0.06566768518013069 0
          0.8197246919915738 0.5727577405319979 0 0.614465475211314 -0.7889437114099674 0
          0.05681266134989439 -0.9983848564107641 0 -0.9805395139354939 -0.19632183172318188 0
          0.44661377808358516 0.894726848387767 0 0.17059958337723513 -0.9853404397219845 0
          0.3483457612155646 -0.9373661134493548 0 0.9737963806003667 -0.22742165492675884 0
          0.07027279066282739 -0.9975278115884582 0 -0.19800103241575004 -0.9802018114461415 0
          -0.7160007133806761 -0.6980995476566096 0 -0.8485491434467027 -0.5291165761492141 0
          -0.8690975343795939 0.49464075421998 0 0.07734539928331968 -0.9970043576683624 0
          0.9466761593765317 0.32218666835873194 0 -0.020893797990631204 -0.9997817007754877 0
          0.7128374165974128 -0.7013293217160725 0 -0.04764059025395685 0.9988645424482013 0
          0.5294601746653351 -0.8483347944316282 0 -0.3966339943956006 -0.9179768376651944 0
          -0.9974721729697184 0.0710581744141256 0 0.7322065383647265 -0.6810826566401059 0
          -0.25429758790067836 0.9671260190832923 0 -0.9503784528823092 0.3110961206717763 0
          0.7063530483648367 0.7078597114299575 0 0.8619429166995323 0.5070053336519283 0
          0.8213468837190054 0.5704290460741621 0 -0.9534807055924381 0.30145404967083506 0
          -0.9272289399256566 0.37449498389743907 0 -0.997995797835135 -0.06328022995701205 0
          0.6836786781429592 0.7297831630372791 0 0.8186273013921244 0.5743251182174152 0
          -0.6595119951828928 -0.7516940389612519 0 0.3114031492525278 0.9502778954787952 0
          0.18190919794047725 -0.9833153327924121 0 0.9711519946824552 0.23846132437837508 0
          -0.83945907566283 0.5434229110805939 0 0.7185122664349709 0.6955142866846672 0
          0.8369361553308984 -0.5473005316094023 0 -0.7880099523626992 -0.6156625008698651 0
          -0.11014516871357614 0.9939155103976685 0 -0.999476544803319 -0.032351760199701866 0
          -0.6235741960538842 0.7817641728908739 0 0.6879127980359916 0.725793346826969 0
          0.02710966072127052 -0.9996324656070238 0 0.3885210826338911 0.9214398343619561 0
          0.2906766150921835 0.9568213550284873 0 -0.03758383800193649 -0.9992934779738354 0
          <InformationKey name="L2_NORM_RANGE" location="vtkDataArray" length="2">
            <Value index="0">
              1
            </Value>
            <Value index="1">
              1
            </Value>
          </InformationKey>
        </DataArray>
        <DataArray type="Float64" Name="velocity" NumberOfComponents="3" format="ascii" RangeMin="2.98391528750295" RangeMax="65.61664053985334">
          20.472372037415383 -30.489259884928693 0 -7.778161120144524 43.605506408926914 0
          -35.778279556590725 14.318100471258902 0 -2.7267860528004704 -6.306708942777526 0
          -25.56803597993237 0.5919415230237348 0 40.69440930810454 -42.34960265147567 0
          21.390392053252754 11.720491675449018 0 -31.091580543867785 -10.301819378431787 0
          -22.233594277397 35.80993014386058 0 40.8936574712134 11.727908496204755 0
          -31.918129728714472 1.502371966558826 0 32.46317064138093 -14.067556233339687 0
          31.61170207931397 -20.66117562390716 0 -32.788218903188394 -0.7210412736466054 0
          -30.467523066969363 36.43074923190564 0 -29.58028331655805 11.627227611362315 0
          37.80505508071815 -10.753091333426255 0 44.65772551607054 -33.330173144632525 0
          47.18774005931614 6.396489460552942 0 9.836891189866492 -36.87781496106794 0
          6.677739541459459 5.438027088135769 0 -18.951003944933063 -37.93510690561732 0
          23.77908201111339 -25.727634747998636 0 32.285914726045576 -31.45240287607238 0
          -18.732306147503376 38.172541468590836 0 17.42129460906331 23.929755673071398 0
          -43.74567596165927 -36.843843838172035 0 -41.00470913383489 -49.1685554695042 0
          -4.3489588147394045 13.430332075080756 0 2.9762992276979077 -0.21305715242312573 0
          -16.420210149222868 -24.717665071237764 0 -26.63245586108499 -32.68369682188443 0
          9.59810303037343 22.68931438280859 0 37.757309281314306 20.71597266757422 0
          -26.523439665569285 -2.200425364398683 0 -48.17882370239545 24.733119867345934 0
          15.472358145094617 -42.19330576503555 0 -2.7230899171649696 49.647506705142575 0
          3.209752212846098 39.943600631846664 0 27.290092728339346 -29.624030405099575 0
          40.710862227344634 -12.518743865476708 0 34.808888796398136 -17.330075407408792 0
          -17.326333983387784 15.921061981020685 0 8.676498234140595 -45.101679767889145 0
          26.99656655139428 -0.8247828969564566 0 -1.181598492863479 -7.087342925864128 0
          -10.527228461045638 27.645380145270124 0 47.47543864880045 24.850515939083976 0
          13.45020038299144 -42.781974126121774 0 13.33632968921519 2.89206325620421 0
          -20.383234879262602 -17.467213088655853 0 13.111992425538233 49.45054225750374 0
          1.6047826830209004 22.445391370448775 0 -25.442525168919026 -16.766088433362327 0
          24.860911549332883 18.296648546241826 0 18.127137052491975 -42.11576276898946 0
          -4.106371249565804 19.81468592825003 0 -43.2115168522386 -43.085994704941484 0
          2.7042817825837204 -23.795120132132308 0 -1.6624837545658195 -36.91945356486498 0
          -40.55592314206473 -37.96183180819797 0 46.98372058379586 25.62816454897687 0
          -23.182362140209666 22.4905983535036 0 -8.42374893276238 -2.5281598168396826 0
          -44.45585735866184 11.374414308737222 0 -0.9380815156004232 40.44748670579848 0
          43.5214270198436 41.82766196839604 0 -19.617472876146607 29.010177679462174 0
          -27.377259211045168 -5.104813753149479 0 1.0108912986547693 -26.93680745999526 0
          21.18807799653547 48.4452609761332 0 15.521324819791857 -22.733301715898534 0
          -3.0984436752635744 -49.699879474370995 0 -5.357606698271908 47.09441502974741 0
          -19.533649987483585 -28.48909553641595 0 -25.241492794096537 30.645102659141713 0
          -1.3628901407151872 -9.249808436218693 0 -28.437070584076316 4.0252086974848424 0
          22.302423751473526 -21.630608392707323 0 4.286209731170565 25.592468486596516 0
          -16.80227135673981 30.176297340482108 0 35.70724318896097 -48.51082997011254 0
          38.494266527440914 9.308694076898924 0 -41.37827709570729 42.48759424258512 0
          41.371957205314274 48.07567751376408 0 40.00221093710812 44.971458396046486 0
          43.45219546574209 -49.16757290067578 0 27.77940311086799 -47.40411222574361 0
          8.787704962513757 14.978077069606684 0 -17.176354508003442 -38.89206379839693 0
          -37.572734230027905 47.39150589914381 0 3.322947059262674 16.230028184641725 0
          20.82576325094061 -43.12614201683975 0 -29.404442159877867 -6.6570323329381935 0
          -48.88074135310182 -43.07374742736768 0 -15.693819004659524 -18.776991949103287 0
          49.2742614956165 -23.093566379026992 0 35.70662412955289 -14.438908494432013 0
          24.676827977366614 34.48562696853686 0 -28.28613766609157 46.49521791482232 0
          21.219265309149932 48.266786794162286 0 25.989900495501132 -30.673962513745963 0
          -14.741048879365302 -30.369965831724773 0 33.206792723445574 45.25947670903301 0
          26.73700517552618 36.1968809297727 0 -4.433626259916984 -16.731616061562868 0
          33.82599634129042 5.430878965379037 0 -37.91344272052366 -28.781627030961573 0
          -0.8760744559602713 -9.034520229977083 0 25.951148963832622 -14.29357740625877 0
          27.17860558051683 48.15404052238152 0 34.61617221348607 33.462162550860555 0
          -13.28055184508198 -44.93740558320786 0 47.55616001461492 34.25892934866374 0
          36.946038841117556 -42.45015674570037 0 -46.76239316488481 11.393180618063838 0
          23.568028568935404 11.552780427737098 0 16.263007945057282 45.12644264060411 0
          -23.411248530157515 41.93857265065735 0 -38.160345232049345 -18.69342940760771 0
          37.21153998486223 -26.635630373860984 0 30.80584946405935 5.653176675427417 0
          44.35923105765637 0.370346282237378 0 16.64168251311186 -34.7034267378138 0
          47.322877480901255 13.376690736606477 0 -32.1350217035443 -42.58571958176201 0
          -0.5025219679409361 28.59799073613067 0 -3.5320261053794297 38.30316610148137 0
          14.736889949280638 40.32409694969634 0 -49.402638529229115 19.356180838194604 0
          8.508964450503598 -39.46387075781778 0 49.03198966734128 -27.000797471280585 0
          -16.70921662991016 18.938285128010065 0 46.14207459237997 -27.3400906744995 0
          42.424140585792586 37.62461911345025 0 -6.825547086494495 -2.911259141055119 0
          6.210247997996007 33.76154121673389 0 -35.16911208657487 13.927818279591207 0
          49.5593687100304 13.93941034113417 0 -6.0481675260535965 -47.161165000275155 0
          -41.68490984500472 3.0367185203014984 0 28.200151364646487 23.664522522360798 0
          -30.983903256438072 -23.817273645282434 0 -4.775523168997552 -3.9973115200368454 0
          17.36371431475763 -32.304692769073746 0 -31.21691646176371 -40.35131875297581 0
          -17.61253928181918 -32.96735050248542 0 -47.52659271635095 33.064298464373394 0
          -25.51716157275273 -35.79649925661745 0 -34.4558032257712 -19.698927528483058 0
          -46.64276824331557 -9.071061809886274 0 28.312364537561464 -5.662808823633235 0
          -48.25117889494449 -21.421563451189467 0 45.139670111270334 -32.86849758057289 0
          <InformationKey name="L2_NORM_RANGE" location="vtkDataArray" length="2">
            <Value index="0">
              2.9839152875
            </Value>
            <Value index="1">
              65.61664054
            </Value>
          </InformationKey>
        </DataArray>
        <DataArray type="Float64" Name="force" NumberOfComponents="3" format="ascii" RangeMin="0.49999999999999994" RangeMax="0.5">
          -0.4374976605922235 -0.24206568731716518 0 -0.026129178949690468 -0.49931679924414224 0
          -0.2496023244758718 -0.4332420566106684 0 0.028483055997035853 0.49918805626844653 0
          -0.3702198885442662 0.3360613547051656 0 0.41950739579571145 0.27205430500674 0
          0.4841735095339921 -0.12480389683634587 0 0.35658107611726086 0.35049955228938057 0
          0.49264956020298295 -0.08541903085265884 0 -0.17912841973023672 -0.4668115350384437 0
          -0.43601051819476194 0.24473419872084723 0 -0.4942026803103807 -0.07591910677843629 0
          0.21425225384694568 -0.4517698216143968 0 -0.27860406953655786 0.4151864309411723 0
          0.4766806502550894 0.15091573036759678 0 0.49987225668377705 -0.011301636955242162 0
          -0.400582756653438 -0.29922141479501846 0 -0.4984237067787986 -0.039671255600021084 0
          0.4952653106670038 -0.06864599077816706 0 -0.39971011095847747 -0.3003861301684244 0
          0.3914739814393963 0.31104360121369995 0 0.3615125528802441 -0.3454108772317524 0
          -0.43509923225963626 -0.24635068111753847 0 0.36597255335373874 0.3406818019673855 0
          -0.4065549012216569 -0.29105517053068963 0 -0.3806862773323086 0.3241573047933189 0
          0.4800419793934297 -0.13985599029014814 0 0.481218879470366 0.13575120640821334 0
          -0.4826242524446349 0.13066687014028194 0 -0.11341446042993321 -0.4869673091341832 0
          0.36078478651753565 0.346170966167725 0 -0.49358057877410577 -0.0798637105137168 0
          -0.49955012774675644 0.02120542072676946 0 -0.02487277251574342 0.49938096197930903 0
          0.4383419870298261 -0.24053337067181296 0 -0.29024289350316224 0.40713518979684377 0
          0.3334930900091489 0.3725350438766126 0 -0.22872327286094893 -0.44461856062447047 0
          -0.4108217912135058 -0.2850007997605035 0 0.4428783556616453 0.23207490619719578 0
          -0.26676316745067974 0.4228917266767944 0 0.2625739837207734 -0.4255054677357308 0
          0.19335513514624073 -0.46110063078744423 0 -0.48923450111979366 -0.10319691329718451 0
          -0.011104370203644975 0.499876677754004 0 -0.36627023131446557 0.3403617452841137 0
          0.32419026268952744 -0.38065821096791697 0 -0.3689085604224944 0.3375003319213224 0
          -0.22966341272650295 -0.4441336700305618 0 -0.3675939902409014 0.33893164257527225 0
          0.38754419376396876 -0.3159264121276273 0 0.39577201556199787 -0.30555606964678955 0
          0.4535993460359502 -0.21035121410573865 0 0.1464263300086156 0.47807879045216806 0
          -0.11785242960204757 0.48591234275010387 0 -0.4898442313418869 0.1002627997867403 0
          -0.4688770874139409 -0.17364986869623497 0 0.1651511096900876 0.47193761342801727 0
          -0.09131922488092364 -0.49159007228294116 0 0.43478386452435047 -0.24690684710892746 0
          -0.43212286047167464 -0.2515349547434265 0 -0.3568389074234928 -0.35023705422014956 0
          -0.4845511142009494 -0.12332971145112802 0 0.36676879238576426 -0.3398244442824679 0
          0.332386870028613 -0.3735223803637232 0 -0.4862525808374641 0.11644066140702503 0
          0.49985881308357016 -0.01188137124596606 0 -0.46329085612414134 -0.1880467565042274 0
          -0.40366498092061337 0.2950501367197799 0 0.45246388427951856 0.21278259661610124 0
          -0.10024241367480517 0.48984840359099796 0 -0.02732139507184817 0.49925298333743384 0
          0.04017360493273378 0.49838346829194546 0 -0.03373055909030725 0.4988609519530019 0
          0.05921804613586549 -0.496480838514288 0 -0.4526024170486254 0.2124877692521199 0
          -0.4540672759727115 -0.20933921966683988 0 0.054591019208207116 -0.49701088581821745 0
          -0.19797378696739212 0.45913655885127425 0 0.10952887940834706 -0.4878559465411401 0
          -0.24300741159582237 0.43697528295030436 0 0.44345472816361836 -0.23097165209031895 0
          -0.3469193931253969 -0.36006518114572855 0 -0.4466850160439097 -0.2246608475944399 0
          -0.4990242233438173 -0.031222179874248746 0 0.14474921617786662 0.47858924394086966 0
          -0.4944739965152332 -0.07413141554194903 0 0.14594242479124248 -0.4782267335125176 0
          0.49985625986559507 0.011988305684236745 0 0.08498696554868669 0.49272427957918447 0
          0.08692988775347124 -0.4923852095820597 0 -0.380855509220154 -0.3239584558190405 0
          -0.4811515268860527 -0.1359897355509601 0 0.18796670356501835 -0.46332334103830825 0
          0.06730912558639811 0.49544876789915876 0 0.4468380217314343 0.2243563735112918 0
          -0.4800215107572316 0.1399262277428538 0 0.4973644750720486 0.05126966877507143 0
          -0.49891966333958104 -0.03285071586920346 0 0.4846471278701712 -0.12295186638353203 0
          -0.34366286387494444 0.3631746632039072 0 0.3534108612351075 -0.3536958625161731 0
          -0.3168725809802339 -0.38677094955919983 0 0.498895294949773 0.033218739846342014 0
          -0.3509828813720421 0.35610534534569827 0 -0.49892077405212426 0.032833842590065346 0
          0.4098623459957869 0.28637887026599895 0 0.307232737605657 -0.3944718557049837 0
          0.028406330674947196 -0.49919242820538207 0 -0.49026975696774694 -0.09816091586159094 0
          0.22330688904179258 0.4473634241938835 0 0.08529979168861757 -0.49267021986099224 0
          0.1741728806077823 -0.4686830567246774 0 0.48689819030018333 -0.11371082746337942 0
          0.035136395331413696 -0.4987639057942291 0 -0.09900051620787502 -0.49010090572307075 0
          -0.35800035669033803 -0.3490497738283048 0 -0.42427457172335137 -0.2645582880746071 0
          -0.43454876718979696 0.24732037710999 0 0.03867269964165984 -0.4985021788341812 0
          0.47333807968826586 0.16109333417936597 0 -0.010446898995315602 -0.49989085038774383 0
          0.3564187082987064 -0.35066466085803627 0 -0.023820295126978426 0.49943227122410067 0
          0.26473008733266756 -0.4241673972158141 0 -0.1983169971978003 -0.4589884188325972 0
          -0.4987360864848592 0.0355290872070628 0 0.36610326918236324 -0.34054132832005296 0
          -0.12714879395033918 0.48356300954164616 0 -0.4751892264411546 0.15554806033588814 0
          0.35317652418241835 0.35392985571497876 0 0.43097145834976613 0.2535026668259642 0
          0.4106734418595027 0.28521452303708106 0 -0.47674035279621907 0.15072702483541753 0
          -0.4636144699628283 0.18724749194871954 0 -0.4989978989175675 -0.03164011497850602 0
          0.3418393390714796 0.36489158151863954 0 0.4093136506960622 0.2871625591087076 0
          -0.3297559975914464 -0.37584701948062593 0 0.1557015746262639 0.4751389477393976 0
          0.09095459897023862 -0.49165766639620606 0 0.4855759973412276 0.11923066218918754 0
          -0.419729537831415 0.27171145554029696 0 0.35925613321748545 0.3477571433423336 0
          0.4184680776654492 -0.27365026580470114 0 -0.3940049761813496 -0.30783125043493254 0
          -0.05507258435678807 0.49695775519883423 0 -0.4997382724016595 -0.016175880099850933 0
          -0.3117870980269421 0.3908820864454369 0 0.3439563990179958 0.3628966734134845 0
          0.01355483036063526 -0.4998162328035119 0 0.19426054131694556 0.46071991718097804 0
          0.14533830754609176 0.47841067751424365 0 -0.018791919000968244 -0.4996467389869177 0
          <InformationKey name="L2_NORM_RANGE" location="vtkDataArray" length="2">
            <Value index="0">
              0.5
            </Value>
            <Value index="1">
              0.5
            </Value>
          </InformationKey>
        </DataArray>
        <DataArray type="Float64" Name="radius" format="ascii" RangeMin="1" RangeMax="1">
          1 1 1 1 1 1
          1 1 1 1 1 1
          1 1 1 1 1 1
          1 1 1 1 1 1
          1 1 1 1 1 1
          1 1 1 1 1 1
          1 1 1 1 1 1
          1 1 1 1 1 1
          1 1 1 1 1 1
          1 1 1 1 1 1
          1 1 1 1 1 1
          1 1 1 1 1 1
          1 1 1 1 1 1
          1 1 1 1 1 1
          1 1 1 1 1 1
          1 1 1 1 1 1
          1 1 1 1 1 1
          1 1 1 1 1 1
          1 1 1 1 1 1
          1 1 1 1 1 1
          1 1 1 1 1 1
          1 1 1 1 1 1
          1 1 1 1 1 1
          1 1 1 1 1 1
          1 1 1 1 1 1
          1 1 1 1
        </DataArray>
      </PointData>
      <CellData>
      </CellData>
      <Points>
        <DataArray type="Float32" Name="Points" NumberOfComponents="3" format="ascii" RangeMin="2.550018656005593" RangeMax="67.55207998758576">
          -37.222198486328125 33.75126647949219 0 47.136741638183594 -28.020505905151367 0
          -19.094194412231445 4.352676868438721 0 -31.173227310180664 49.106689453125 0
          48.892478942871094 46.613399505615234 0 22.43792152404785 48.67055130004883 0
          -39.05950164794922 29.542097091674805 0 -20.234649658203125 -50.38013458251953 0
          -38.66700744628906 13.653738021850586 0 37.383033752441406 0.7450624704360962 0
          29.994497299194336 -13.281898498535156 0 -28.4744873046875 18.1715030670166 0
          -10.607739448547363 24.09901237487793 0 -2.9637765884399414 -7.6127610206604 0
          -32.58632278442383 -19.481563568115234 0 29.50599479675293 -18.973369598388672 0
          37.09600067138672 -35.344947814941406 0 49.38505935668945 31.682832717895508 0
          -37.364532470703125 26.203882217407227 0 -1.4015681743621826 15.557258605957031 0
          -38.03549575805664 -29.13331413269043 0 -45.04990768432617 -46.1395378112793 0
          -8.787653923034668 -4.1119384765625 0 -0.956601619720459 29.812562942504883 0
          41.8206787109375 30.779211044311523 0 21.016803741455078 -49.64775466918945 0
          20.434093475341797 14.512944221496582 0 -4.210990905761719 27.124649047851562 0
          7.80424165725708 37.99373245239258 0 30.606569290161133 -47.748355865478516 0
          32.47256088256836 32.24380874633789 0 43.68056106567383 -8.569918632507324 0
          -8.03129768371582 8.130581855773926 0 -34.30733108520508 26.497575759887695 0
          -26.44611358642578 30.821334838867188 0 49.252525329589844 -17.073293685913086 0
          -20.58228874206543 -48.691246032714844 0 -29.121368408203125 40.32044982910156 0
          34.98960876464844 45.73292922973633 0 27.825838088989258 49.252079010009766 0
          -43.34384536743164 29.42140007019043 0 8.92265796661377 23.67694854736328 0
          19.369474411010742 18.1749210357666 0 -10.616387367248535 5.573871612548828 0
          -29.207107543945312 2.2943670749664307 0 -9.578234672546387 -14.931896209716797 0
          9.615612983703613 -13.83226490020752 0 46.83786392211914 -34.6290283203125 0
          -10.573820114135742 -11.110427856445312 0 22.586231231689453 -11.303671836853027 0
          42.80918502807617 -5.94863748550415 0 35.36978530883789 11.697810173034668 0
          -37.46846008300781 -2.478198289871216 0 -15.813104629516602 2.9131784439086914 0
          21.491926193237305 48.76029968261719 0 21.925994873046875 41.475154876708984 0
          0.529373049736023 6.024405479431152 0 0.135077565908432 -4.080365180969238 0
          4.652149200439453 -5.4809465408325195 0 35.31622314453125 10.712544441223145 0
          0.551792323589325 47.543697357177734 0 -47.122074127197266 47.775569915771484 0
          -13.565077781677246 17.882553100585938 0 -14.959288597106934 35.22416687011719 0
          -45.5489387512207 15.94836139678955 0 24.64891815185547 -36.17514419555664 0
          48.34059143066406 -40.22301483154297 0 -22.25855255126953 30.431581497192383 0
          -42.35224914550781 12.908487319946289 0 -49.304649353027344 18.70186424255371 0
          3.113945245742798 -5.950164318084717 0 -29.655075073242188 -36.177833557128906 0
          -11.365816116333008 26.786373138427734 0 -46.05168151855469 -24.70614242553711 0
          1.0882915258407593 32.60985565185547 0 47.896121978759766 32.29751968383789 0
          -19.42502212524414 -44.44902420043945 0 -24.448518753051758 3.7875566482543945 0
          38.678443908691406 -15.422587394714355 0 -46.95108413696289 -33.745975494384766 0
          37.90765380859375 -29.312957763671875 0 -23.05068016052246 -0.700899600982666 0
          -27.324811935424805 -0.42781734466552734 0 44.77708053588867 15.176078796386719 0
          26.32109832763672 -6.637406349182129 0 4.849403381347656 -44.75252914428711 0
          -17.07526969909668 -9.431131362915039 0 40.865264892578125 31.430051803588867 0
          -24.279611587524414 -36.416866302490234 0 -1.016541600227356 -11.632375717163086 0
          21.43842315673828 -21.051862716674805 0 12.031268119812012 31.064424514770508 0
          -18.80734634399414 -12.113078117370605 0 -15.158814430236816 31.340656280517578 0
          17.35372543334961 -11.956353187561035 0 -4.271655559539795 -19.635456085205078 0
          40.7476921081543 -1.2891303300857544 0 25.563823699951172 -39.07379913330078 0
          -10.70601749420166 37.356666564941406 0 -13.50128173828125 41.95842742919922 0
          5.1678948402404785 -36.07052993774414 0 -30.180326461791992 45.04237747192383 0
          49.67340850830078 -26.433805465698242 0 -48.35485076904297 -11.149101257324219 0
          28.06024742126465 -2.6963298320770264 0 4.042699813842773 -48.4426155090332 0
          39.87649917602539 -29.842113494873047 0 38.55206298828125 -5.525391101837158 0
          -34.92700958251953 -25.794261932373047 0 29.68248176574707 -2.926781177520752 0
          -41.100894927978516 14.538191795349121 0 13.675934791564941 8.201692581176758 0
          22.999601364135742 -14.36773681640625 0 18.601348876953125 21.370548248291016 0
          -33.57299041748047 -36.29545974731445 0 -5.132772922515869 -46.20166778564453 0
          29.95013999938965 -32.98917007446289 0 33.28821563720703 -17.082345962524414 0
          15.55200481414795 -8.038089752197266 0 28.21508026123047 -38.816978454589844 0