<?xml version="1.0"?>
<VTKFile type="PolyData" version="0.1" byte_order="LittleEndian" header_type="UInt32" compressor="vtkZLibDataCompressor">
  <PolyData>
    <Piece NumberOfPoints="154" NumberOfVerts="0" NumberOfLines="0" NumberOfStrips="0" NumberOfPolys="0">
      <PointData>
        <DataArray type="Int32" Name="id" format="ascii" RangeMin="0" RangeMax="153">
          0 1 2 3 4 5
          6 7 8 9 10 11
          12 13 14 15 16 17
          18 19 20 21 22 23
          24 25 26 27 28 29
          30 31 32 33 34 35
          36 37 38 39 40 41
          42 43 44 45 46 47
          48 49 50 51 52 53
          54 55 56 57 58 59
          60 61 62 63 64 65
          66 67 68 69 70 71
          72 73 74 75 76 77
          78 79 80 81 82 83
          84 85 86 87 88 89
          90 91 92 93 94 95
          96 97 98 99 100 101
          102 103 104 105 106 107
          108 109 110 111 112 113
          114 115 116 117 118 119
          120 121 122 123 124 125
          126 127 128 129 130 131
          132 133 134 135 136 137
          138 139 140 141 142 143
          144 145 146 147 148 149
          150 151 152 153
        </DataArray>
        <DataArray type="Float64" Name="director" NumberOfComponents="3" format="ascii" RangeMin="0.9999999999999999" RangeMax="1">
          -0.8876852351880382 -0.46045078263497086 0 -0.01878004855921585 -0.999823639336515 0
          -0.47681673217675924 -0.8790027325988677 0 0.09570997982950323 0.995409262444868 0
          -0.747229008899693 0.664566631917961 0 0.7756716455443234 0.6311366716477196 0
          0.9955818145783374 -0.09389808560830695 0 0.7829473078611637 0.6220880268201247 0
          0.9896781003410472 -0.14330826112034184 0 -0.43554381795308694 -0.9001675303202444 0
          -0.8888157347419245 0.45826475936424865 0 -0.9773099744321655 -0.21181410216366633 0
          0.4084660800698689 -0.9127734995234883 0 -0.5799453569888574 0.8146553767741712 0
          0.9628307714409118 0.2701053601217472 0 0.9999526815149189 -0.009728038400585592 0
          -0.8089992697824838 -0.5878096473276089 0 -0.9998278957605846 0.01855205807886363 0
          0.9895640473333881 -0.14409370640372876 0 -0.8521683570419468 -0.5232677051533268 0
          0.7916488261767922 0.6109763792593843 0 0.6498500243379313 -0.7600624618200731 0
          -0.8875991468928681 -0.4606167109811071 0 0.7156995166376754 0.6984083346328263 0
          -0.819261908146113 -0.5734195025117212 0 -0.7550718615876589 0.6556420394075926 0
          0.9240034457246112 -0.38238414230854995 0 0.9410304697853599 0.33832182154798246 0
          -0.9832749214236343 0.18212750725616866 0 -0.33963118763729044 -0.9405586937475426 0
          0.7429459112127034 0.6693514570181541 0 -0.9982400546333849 -0.05930255749574991 0
          -0.9951066523992399 0.09880663110732145 0 -0.01900326390980323 0.9998194216761217 0
          0.876189441147573 -0.4819668694231002 0 -0.6473036664353253 0.762232224075698 0
          0.7102187867445235 0.7039810188883909 0 -0.41003697639249104 -0.9120688998046714 0
          -0.8071356738704972 -0.5903659915388236 0 0.8904016892929033 0.4551756053484677 0
          -0.6030425562650946 0.7977090167055028 0 0.5919199726772005 -0.8059967406545898 0
          0.40892792993373595 -0.9125666814650366 0 -0.9984371998488556 -0.05588522128413133 0
          0.09212062910963734 0.9957478544754413 0 -0.7300072524614457 0.683439398449995 0
          0.6332319432412732 -0.7739620830886232 0 -0.7602132991502571 0.6496735640266438 0
          -0.38612979193433467 -0.9224444610819382 0 -0.6691032975829891 0.7431694135011007 0
          0.7488846955359564 -0.6627003189919392 0 0.8417715754422023 -0.5398338770191741 0
          0.9328234904597438 -0.36033364489941855 0 0.3911928024165927 0.9203087478327329 0
          -0.28341613791265 0.9589970243805127 0 -0.9767076737408341 0.21457427631421344 0
          -0.9238899061520274 -0.3826583872207665 0 0.40623856888726956 0.913767051905694 0
          -0.17084067004637551 -0.9852986681499704 0 0.8634583589569376 -0.5044201248437579 0
          -0.8451711045663685 -0.5344958409623639 0 -0.6683737406644712 -0.7438256131582067 0
          -0.9239810646122054 -0.38243822015862317 0 0.7080505508959161 -0.7061617501507638 0
          0.6746770464617281 -0.7381130556884082 0 -0.9684339021535615 0.2492704899494243 0
          0.9993820016620074 -0.03515131226625067 0 -0.9029899603541333 -0.42966164769460263 0
          -0.7814356472881857 0.6239858405022459 0 0.918333480821901 0.39580755172372734 0
          -0.3264640892574552 0.945209605550695 0 -0.11835463612165185 0.9929713893705656 0
          0.09546636299658463 0.9954326564545711 0 0.04820887392286047 0.9988372762743137 0
          0.1315656151310526 -0.9913074643697523 0 -0.8470422349156158 0.5315255894772695 0
          -0.9134832979879517 -0.4068762272449142 0 0.18607587446820792 -0.9825353779589271 0
          -0.3632087867846184 0.9317077745744347 0 0.31950870896190625 -0.9475833392886854 0
          -0.4640027768041788 0.885833744625938 0 0.8589795789973432 -0.5120098464537055 0
          -0.6917215438468648 -0.72216432048261 0 -0.9272502005556363 -0.3744423394456511 0
          -0.9980017663376628 0.0631860299979763 0 0.21768875027639778 0.976018241634397 0
          -0.9753657966403053 -0.22059365980059936 0 0.29063483150994 -0.956834047634797 0
          0.9990132163716624 -0.04441388875955468 0 0.17313234018849105 0.9848985697932842 0
          0.17845232575305442 -0.9839485593430816 0 -0.7109528944529383 -0.7032396333178251 0
          -0.9634591756288364 -0.267855216295302 0 0.3407058990034933 -0.940169926334714 0
          0.1185950732939755 0.9929427015645951 0 0.8492213498652585 0.5280370242066632 0
          -0.9939070882808854 0.11022114073539781 0 0.9981388802107213 0.0609817662230892 0
          -0.9895213766719725 -0.14438644364760958 0 0.9569608436566578 -0.2902170630888847 0
          -0.7290304185095869 0.6844812991512161 0 0.694966535969444 -0.7190420807453702 0
          -0.6635592932477371 -0.7481236958849543 0 0.9947716541402277 0.10212421906244908 0
          -0.7557550199775991 0.6548544493081334 0 -0.9995935017240243 -0.0285101966163515 0
          0.8499203635470064 0.5269111648353302 0 0.656766678703741 -0.754093846775358 0
          -0.026674990406584314 -0.9996441591320426 0 -0.9599165543993352 -0.28028594076426344 0
          0.5313457981393549 0.8471550287873242 0 0.1759681409935573 -0.9843958621181174 0
          0.43029566497522664 -0.9026880085076613 0 0.9841117208107875 -0.17755033360382852 0
          0.06479039943238064 -0.9978988947490586 0 -0.19691968443931931 -0.9804196233655867 0
          -0.7822637984342147 -0.6229473088948008 0 -0.7884744912138743 -0.6150674570362361 0
          -0.8639989997507908 0.5034935237216394 0 0.07505884781532768 -0.9971791059607273 0
          0.9579234496700032 0.28702380488788887 0 -0.09348247735165259 -0.9956209250654577 0
          0.7756686972437834 -0.6311402951136394 0 -0.14875837834078415 0.9888735737562311 0
          0.5208978861771419 -0.8536189970801875 0 -0.43170802382232176 -0.9020134046495238 0
          -0.995621943983854 0.09347162488055744 0 0.7361680041408651 -0.6767988398920726 0
          -0.2778674529167105 0.9606194244390334 0 -0.9472593186477917 0.32046806897867597 0
          0.7199190332096886 0.6940580563774382 0 0.8733492993837485 0.4870944479933185 0
          0.8144208108805003 0.5802747132218914 0 -0.9665143401422728 0.25661260744427 0
          -0.8946344591487841 0.44679881882516487 0 -0.9998475945208066 -0.017458170893789537 0
          0.728053549138337 0.6855202619814175 0 0.8081855265868846 0.5889279706513184 0
          -0.6045997567428031 -0.7965294308100256 0 0.3060342576105995 0.9520205003931004 0
          0.20015191842383712 -0.9797648746261818 0 0.959461688189504 0.28183908333754426 0
          -0.9007052138286292 0.4344307974602208 0 0.7169776055768324 0.6970962007508806 0
          0.8435113324474868 -0.5371113776794022 0 -0.8375372994772267 -0.5463801533588079 0
          -0.14150557478406578 0.9899374587846603 0 -0.998656947022222 -0.0518102515363032 0
          -0.5611288491182114 0.8277284667614565 0 0.6848816798268443 0.7286542970693028 0
          -0.05982977042081805 -0.9982085947192562 0 0.3782439470657162 0.925705955748448 0
          0.377250206072617 0.9261113766811031 0 -0.03217933671537869 -0.9994821110397916 0
          <InformationKey name="L2_NORM_RANGE" location="vtkDataArray" length="2">
            <Value index="0">
              1
            </Value>
            <Value index="1">
              1
            </Value>
          </InformationKey>
        </DataArray>
        <DataArray type="Float64" Name="velocity" NumberOfComponents="3" format="ascii" RangeMin="2.98391528750295" RangeMax="65.61664053985334">
          20.472372037415383 -30.489259884928693 0 -7.778161120144524 43.605506408926914 0
          -35.778279556590725 14.318100471258902 0 -2.7267860528004704 -6.306708942777526 0
          -25.56803597993237 0.5919415230237348 0 40.69440930810454 -42.34960265147567 0
          21.390392053252754 11.720491675449018 0 -31.091580543867785 -10.301819378431787 0
          -22.233594277397 35.80993014386058 0 40.8936574712134 11.727908496204755 0
          -31.918129728714472 1.502371966558826 0 32.46317064138093 -14.067556233339687 0
          31.61170207931397 -20.66117562390716 0 -32.788218903188394 -0.7210412736466054 0
          -30.467523066969363 36.43074923190564 0 -29.58028331655805 11.627227611362315 0
          37.80505508071815 -10.753091333426255 0 44.65772551607054 -33.330173144632525 0
          47.18774005931614 6.396489460552942 0 9.836891189866492 -36.87781496106794 0
          6.677739541459459 5.438027088135769 0 -18.951003944933063 -37.93510690561732 0
          23.77908201111339 -25.727634747998636 0 32.285914726045576 -31.45240287607238 0
          -18.732306147503376 38.172541468590836 0 17.42129460906331 23.929755673071398 0
          -43.74567596165927 -36.843843838172035 0 -41.00470913383489 -49.1685554695042 0
          -4.3489588147394045 13.430332075080756 0 2.9762992276979077 -0.21305715242312573 0
          -16.420210149222868 -24.717665071237764 0 -26.63245586108499 -32.68369682188443 0
          9.59810303037343 22.68931438280859 0 37.757309281314306 20.71597266757422 0
          -26.523439665569285 -2.200425364398683 0 -48.17882370239545 24.733119867345934 0
          15.472358145094617 -42.19330576503555 0 -2.7230899171649696 49.647506705142575 0
          3.209752212846098 39.943600631846664 0 27.290092728339346 -29.624030405099575 0
          40.710862227344634 -12.518743865476708 0 34.808888796398136 -17.330075407408792 0
          -17.326333983387784 15.921061981020685 0 8.676498234140595 -45.101679767889145 0
          26.99656655139428 -0.8247828969564566 0 -1.181598492863479 -7.087342925864128 0
          -10.527228461045638 27.645380145270124 0 47.47543864880045 24.850515939083976 0
          13.45020038299144 -42.781974126121774 0 13.33632968921519 2.89206325620421 0
          -20.383234879262602 -17.467213088655853 0 13.111992425538233 49.45054225750374 0
          1.6047826830209004 22.445391370448775 0 -25.442525168919026 -16.766088433362327 0
          24.860911549332883 18.296648546241826 0 18.127137052491975 -42.11576276898946 0
          -4.106371249565804 19.81468592825003 0 -43.2115168522386 -43.085994704941484 0
          2.7042817825837204 -23.795120132132308 0 -1.6624837545658195 -36.91945356486498 0
          -40.55592314206473 -37.96183180819797 0 46.98372058379586 25.62816454897687 0
          -23.182362140209666 22.4905983535036 0 -8.42374893276238 -2.5281598168396826 0
          -44.45585735866184 11.374414308737222 0 -0.9380815156004232 40.44748670579848 0
          43.5214270198436 41.82766196839604 0 -19.617472876146607 29.010177679462174 0
          -27.377259211045168 -5.104813753149479 0 1.0108912986547693 -26.93680745999526 0
          21.18807799653547 48.4452609761332 0 15.521324819791857 -22.733301715898534 0
          -3.0984436752635744 -49.699879474370995 0 -5.357606698271908 47.09441502974741 0
          -19.533649987483585 -28.48909553641595 0 -25.241492794096537 30.645102659141713 0
          -1.3628901407151872 -9.249808436218693 0 -28.437070584076316 4.0252086974848424 0
          22.302423751473526 -21.630608392707323 0 4.286209731170565 25.592468486596516 0
          -16.80227135673981 30.176297340482108 0 35.70724318896097 -48.51082997011254 0
          38.494266527440914 9.308694076898924 0 -41.37827709570729 42.48759424258512 0
          41.371957205314274 48.07567751376408 0 40.00221093710812 44.971458396046486 0
          43.45219546574209 -49.16757290067578 0 27.77940311086799 -47.40411222574361 0
          8.787704962513757 14.978077069606684 0 -17.176354508003442 -38.89206379839693 0
          -37.572734230027905 47.39150589914381 0 3.322947059262674 16.230028184641725 0
          20.82576325094061 -43.12614201683975 0 -29.404442159877867 -6.6570323329381935 0
          -48.88074135310182 -43.07374742736768 0 -15.693819004659524 -18.776991949103287 0
          49.2742614956165 -23.093566379026992 0 35.70662412955289 -14.438908494432013 0
          24.676827977366614 34.48562696853686 0 -28.28613766609157 46.49521791482232 0
          21.219265309149932 48.266786794162286 0 25.989900495501132 -30.673962513745963 0
          -14.741048879365302 -30.369965831724773 0 33.206792723445574 45.25947670903301 0
          26.73700517552618 36.1968809297727 0 -4.433626259916984 -16.731616061562868 0
          33.82599634129042 5.430878965379037 0 -37.91344272052366 -28.781627030961573 0
          -0.8760744559602713 -9.034520229977083 0 25.951148963832622 -14.29357740625877 0
          27.17860558051683 48.15404052238152 0 34.61617221348607 33.462162550860555 0
          -13.28055184508198 -44.93740558320786 0 47.55616001461492 34.25892934866374 0
          36.946038841117556 -42.45015674570037 0 -46.76239316488481 11.393180618063838 0
          23.568028568935404 11.552780427737098 0 16.263007945057282 45.12644264060411 0
          -23.411248530157515 41.93857265065735 0 -38.160345232049345 -18.69342940760771 0
          37.21153998486223 -26.635630373860984 0 30.80584946405935 5.653176675427417 0
          44.35923105765637 0.370346282237378 0 16.64168251311186 -34.7034267378138 0
          47.322877480901255 13.376690736606477 0 -32.1350217035443 -42.58571958176201 0
          -0.5025219679409361 28.59799073613067 0 -3.5320261053794297 38.30316610148137 0
          14.736889949280638 40.32409694969634 0 -49.402638529229115 19.356180838194604 0
          8.508964450503598 -39.46387075781778 0 49.03198966734128 -27.000797471280585 0
          -16.70921662991016 18.938285128010065 0 46.14207459237997 -27.3400906744995 0
          42.424140585792586 37.62461911345025 0 -6.825547086494495 -2.911259141055119 0
          6.210247997996007 33.76154121673389 0 -35.16911208657487 13.927818279591207 0
          49.5593687100304 13.93941034113417 0 -6.0481675260535965 -47.161165000275155 0
          -41.68490984500472 3.0367185203014984 0 28.200151364646487 23.664522522360798 0
          -30.983903256438072 -23.817273645282434 0 -4.775523168997552 -3.9973115200368454 0
          17.36371431475763 -32.304692769073746 0 -31.21691646176371 -40.35131875297581 0
          -17.61253928181918 -32.96735050248542 0 -47.52659271635095 33.064298464373394 0
          -25.51716157275273 -35.79649925661745 0 -34.4558032257712 -19.698927528483058 0
          -46.64276824331557 -9.071061809886274 0 28.312364537561464 -5.662808823633235 0
          -48.25117889494449 -21.421563451189467 0 45.139670111270334 -32.86849758057289 0
          <InformationKey name="L2_NORM_RANGE" location="vtkDataArray" length="2">
            <Value index="0">
              2.9839152875
            </Value>
            <Value index="1">
              65.61664054
            </Value>
          </InformationKey>
        </DataArray>
        <DataArray type="Float64" Name="force" NumberOfComponents="3" format="ascii" RangeMin="0.49999999999999994" RangeMax="0.5">
          -0.4438426175940191 -0.23022539131748543 0 -0.009390024279607926 -0.4999118196682575 0
          -0.23840836608837962 -0.43950136629943387 0 0.047854989914751615 0.497704631222434 0
          -0.3736145044498465 0.3322833159589805 0 0.3878358227721617 0.3155683358238598 0
          0.4977909072891687 -0.046949042804153476 0 0.39147365393058187 0.3110440134100623 0
          0.4948390501705236 -0.07165413056017092 0 -0.21777190897654347 -0.4500837651601222 0
          -0.4444078673709623 0.22913237968212433 0 -0.48865498721608275 -0.10590705108183317 0
          0.20423304003493445 -0.45638674976174415 0 -0.2899726784944287 0.4073276883870856 0
          0.4814153857204559 0.1350526800608736 0 0.49997634075745945 -0.004864019200292796 0
          -0.4044996348912419 -0.29390482366380444 0 -0.4999139478802923 0.009276029039431815 0
          0.49478202366669405 -0.07204685320186438 0 -0.4260841785209734 -0.2616338525766634 0
          0.3958244130883961 0.30548818962969215 0 0.32492501216896563 -0.38003123091003654 0
          -0.44379957344643406 -0.23030835549055356 0 0.3578497583188377 0.3492041673164131 0
          -0.4096309540730565 -0.2867097512558606 0 -0.37753593079382947 0.3278210197037963 0
          0.4620017228623056 -0.19119207115427497 0 0.47051523489267993 0.16916091077399123 0
          -0.49163746071181713 0.09106375362808433 0 -0.16981559381864522 -0.4702793468737713 0
          0.3714729556063517 0.33467572850907706 0 -0.49912002731669247 -0.029651278747874956 0
          -0.49755332619961995 0.049403315553660725 0 -0.009501631954901614 0.49990971083806085 0
          0.4380947205737865 -0.2409834347115501 0 -0.32365183321766267 0.381116112037849 0
          0.3551093933722618 0.35199050944419547 0 -0.20501848819624552 -0.4560344499023357 0
          -0.4035678369352486 -0.2951829957694118 0 0.44520084464645165 0.22758780267423384 0
          -0.3015212781325473 0.3988545083527514 0 0.29595998633860027 -0.4029983703272949 0
          0.20446396496686797 -0.4562833407325183 0 -0.4992185999244278 -0.027942610642065664 0
          0.04606031455481867 0.49787392723772067 0 -0.36500362623072286 0.3417196992249975 0
          0.3166159716206366 -0.3869810415443116 0 -0.3801066495751286 0.3248367820133219 0
          -0.19306489596716733 -0.4612222305409691 0 -0.33455164879149457 0.37158470675055033 0
          0.3744423477679782 -0.3313501594959696 0 0.42088578772110113 -0.26991693850958703 0
          0.4664117452298719 -0.18016682244970927 0 0.19559640120829636 0.46015437391636643 0
          -0.141708068956325 0.47949851219025635 0 -0.48835383687041706 0.10728713815710672 0
          -0.4619449530760137 -0.19132919361038325 0 0.20311928444363478 0.456883525952847 0
          -0.08542033502318776 -0.4926493340749852 0 0.4317291794784688 -0.25221006242187893 0
          -0.42258555228318423 -0.26724792048118196 0 -0.3341868703322356 -0.37191280657910336 0
          -0.4619905323061027 -0.19121911007931158 0 0.35402527544795803 -0.3530808750753819 0
          0.33733852323086405 -0.3690565278442041 0 -0.48421695107678075 0.12463524497471215 0
          0.4996910008310037 -0.017575656133125336 0 -0.45149498017706663 -0.21483082384730132 0
          -0.39071782364409285 0.31199292025112296 0 0.4591667404109505 0.19790377586186367 0
          -0.1632320446287276 0.4726048027753475 0 -0.05917731806082593 0.4964856946852828 0
          0.04773318149829232 0.49771632822728556 0 0.024104436961430234 0.49941863813715687 0
          0.0657828075655263 -0.49565373218487613 0 -0.4235211174578079 0.26576279473863473 0
          -0.45674164899397585 -0.2034381136224571 0 0.09303793723410396 -0.49126768897946355 0
          -0.1816043933923092 0.4658538872872173 0 0.15975435448095313 -0.4737916696443427 0
          -0.2320013884020894 0.442916872312969 0 0.4294897894986716 -0.25600492322685275 0
          -0.3458607719234324 -0.361082160241305 0 -0.46362510027781817 -0.18722116972282554 0
          -0.4990008831688314 0.03159301499898815 0 0.10884437513819889 0.4880091208171985 0
          -0.48768289832015266 -0.11029682990029968 0 0.14531741575497 -0.4784170238173985 0
          0.4995066081858312 -0.02220694437977734 0 0.08656617009424553 0.4924492848966421 0
          0.08922616287652721 -0.4919742796715408 0 -0.35547644722646915 -0.35161981665891257 0
          -0.4817295878144182 -0.133927608147651 0 0.17035294950174665 -0.470084963167357 0
          0.05929753664698775 0.49647135078229754 0 0.4246106749326293 0.2640185121033316 0
          -0.4969535441404427 0.055110570367698904 0 0.49906944010536064 0.0304908831115446 0
          -0.49476068833598624 -0.07219322182380479 0 0.4784804218283289 -0.14510853154444234 0
          -0.36451520925479347 0.34224064957560807 0 0.347483267984722 -0.3595210403726851 0
          -0.33177964662386855 -0.37406184794247715 0 0.49738582707011386 0.05106210953122454 0
          -0.37787750998879954 0.3274272246540667 0 -0.49979675086201214 -0.01425509830817575 0
          0.4249601817735032 0.2634555824176651 0 0.3283833393518705 -0.377046923387679 0
          -0.013337495203292157 -0.4998220795660213 0 -0.4799582771996676 -0.14014297038213172 0
          0.26567289906967745 0.4235775143936621 0 0.08798407049677864 -0.4921979310590587 0
          0.21514783248761332 -0.45134400425383064 0 0.49205586040539373 -0.08877516680191426 0
          0.03239519971619032 -0.4989494473745293 0 -0.09845984221965966 -0.4902098116827934 0
          -0.39113189921710734 -0.3114736544474004 0 -0.3942372456069371 -0.30753372851811805 0
          -0.4319994998753954 0.2517467618608197 0 0.03752942390766384 -0.49858955298036367 0
          0.4789617248350016 0.14351190244394443 0 -0.046741238675826295 -0.49781046253272887 0
          0.3878343486218917 -0.3155701475568197 0 -0.07437918917039207 0.49443678687811554 0
          0.26044894308857097 -0.42680949854009376 0 -0.21585401191116088 -0.4510067023247619 0
          -0.497810971991927 0.04673581244027872 0 0.36808400207043257 -0.3383994199460363 0
          -0.13893372645835525 0.4803097122195167 0 -0.47362965932389584 0.16023403448933798 0
          0.3599595166048443 0.3470290281887191 0 0.43667464969187425 0.24354722399665926 0
          0.40721040544025017 0.2901373566109457 0 -0.4832571700711364 0.128306303722135 0
          -0.4473172295743921 0.22339940941258243 0 -0.4999237972604033 -0.008729085446894769 0
          0.3640267745691685 0.34276013099070873 0 0.4040927632934423 0.2944639853256592 0
          -0.30229987837140154 -0.3982647154050128 0 0.15301712880529975 0.4760102501965502 0
          0.10007595921191856 -0.4898824373130909 0 0.479730844094752 0.14091954166877213 0
          -0.4503526069143146 0.2172153987301104 0 0.3584888027884162 0.3485481003754403 0
          0.4217556662237434 -0.2685556888397011 0 -0.41876864973861333 -0.2731900766794039 0
          -0.07075278739203289 0.49496872939233016 0 -0.499328473511111 -0.0259051257681516 0
          -0.2805644245591057 0.41386423338072825 0 0.34244083991342217 0.3643271485346514 0
          -0.029914885210409026 -0.4991042973596281 0 0.1891219735328581 0.462852977874224 0
          0.1886251030363085 0.46305568834055155 0 -0.016089668357689345 -0.4997410555198958 0
          <InformationKey name="L2_NORM_RANGE" location="vtkDataArray" length="2">
            <Value index="0">
              0.5
            </Value>
            <Value index="1">
              0.5
            </Value>
          </InformationKey>
        </DataArray>
        <DataArray type="Float64" Name="radius" format="ascii" RangeMin="1" RangeMax="1">
          1 1 1 1 1 1
          1 1 1 1 1 1
          1 1 1 1 1 1
          1 1 1 1 1 1
          1 1 1 1 1 1
          1 1 1 1 1 1
          1 1 1 1 1 1
          1 1 1 1 1 1
          1 1 1 1 1 1
          1 1 1 1 1 1
          1 1 1 1 1 1
          1 1 1 1 1 1
          1 1 1 1 1 1
          1 1 1 1 1 1
          1 1 1 1 1 1
          1 1 1 1 1 1
          1 1 1 1 1 1
          1 1 1 1 1 1
          1 1 1 1 1 1
          1 1 1 1 1 1
          1 1 1 1 1 1
          1 1 1 1 1 1
          1 1 1 1 1 1
          1 1 1 1 1 1
          1 1 1 1 1 1
          1 1 1 1
        </DataArray>
      </PointData>
      <CellData>
      </CellData>
      <Points>
        <DataArray type="Float32" Name="Points" NumberOfComponents="3" format="ascii" RangeMin="2.669127762329144" RangeMax="67.58061479265176">
          -37.19075393676758 33.69192123413086 0 47.174434661865234 -27.95162010192871 0
          -19.09471893310547 4.302649021148682 0 -31.12112045288086 49.19337463378906 0
          48.919559478759766 46.626346588134766 0 22.45716094970703 48.74367904663086 0
          -39.15000915527344 29.557558059692383 0 -20.202970504760742 -50.276912689208984 0
          -38.664371490478516 13.737166404724121 0 37.464176177978516 0.6942366361618042 0
          30.014122009277344 -13.228679656982422 0 -28.5313663482666 18.12491798400879 0
          -10.681928634643555 24.070053100585938 0 -2.9666483402252197 -7.601318836212158 0
          -32.54086685180664 -19.54452896118164 0 29.51470947265625 -18.96586799621582 0
          37.07212829589844 -35.40049743652344 0 49.35407257080078 31.741615295410156 0
          -37.424198150634766 26.264118194580078 0 -1.4186609983444214 15.531517028808594 0
          -38.09809494018555 -29.326494216918945 0 -45.17634201049805 -46.07115936279297 0
          -8.739452362060547 -4.15697717666626 0 -1.1344184875488281 29.806806564331055 0
          41.82644271850586 30.704240798950195 0 21.02462387084961 -49.622825622558594 0
          20.505449295043945 14.43342113494873 0 -4.320070743560791 27.063735961914062 0
          7.826777935028076 37.9736442565918 0 30.63344955444336 -47.73290252685547 0
          32.615562438964844 32.3537712097168 0 43.62708282470703 -8.575287818908691 0
          -7.975630760192871 8.066176414489746 0 -34.12754440307617 26.5283145904541 0
          -26.459774017333984 30.87070655822754 0 49.274139404296875 -16.994815826416016 0
          -20.56293487548828 -48.65239334106445 0 -29.11639404296875 40.33118438720703 0
          34.96167755126953 45.75216293334961 0 27.790935516357422 49.24434280395508 0
          -43.2920036315918 29.44515609741211 0 8.930191993713379 23.696060180664062 0
          19.27984046936035 18.161043167114258 0 -10.607417106628418 5.670616149902344 0
          -29.29241180419922 2.278883695602417 0 -9.600505828857422 -14.859172821044922 0
          9.76125431060791 -13.846638679504395 0 46.76185607910156 -34.64403533935547 0
          -10.5648775100708 -11.145005226135254 0 22.4963321685791 -11.374968528747559 0
          42.720176696777344 -5.949419021606445 0 35.415897369384766 11.703248023986816 0
          -37.35089874267578 -2.4786581993103027 0 -15.729122161865234 2.9301912784576416 0
          21.491823196411133 48.84669494628906 0 21.96804428100586 41.42301940917969 0
          0.50250244140625 6.02164888381958 0 0.17770850658416748 -4.098606109619141 0
          4.6705002784729 -5.524912357330322 0 35.35185241699219 10.685832023620605 0
          0.5806006789207458 47.45463943481445 0 -47.07662582397461 47.89528274536133 0
          -13.592315673828125 17.88985824584961 0 -14.92354965209961 35.2406120300293 0
          -45.53206253051758 15.937840461730957 0 24.64196014404297 -36.133235931396484 0
          48.2891731262207 -40.14723587036133 0 -22.358013153076172 30.479238510131836 0
          -42.29332733154297 12.825709342956543 0 -49.25822448730469 18.723827362060547 0
          3.112699508666992 -5.887229919433594 0 -29.663185119628906 -36.18519592285156 0
          -11.328505516052246 26.908611297607422 0 -46.080116271972656 -24.730695724487305 0
          1.1169967651367188 32.56476593017578 0 47.86769485473633 32.14738464355469 0
          -19.31313705444336 -44.46100616455078 0 -24.29486656188965 3.7062532901763916 0
          38.75619125366211 -15.46208381652832 0 -46.9167366027832 -33.61186218261719 0
          37.9202995300293 -29.313533782958984 0 -23.12563133239746 -0.6679080724716187 0
          -27.344125747680664 -0.4868690073490143 0 44.74643325805664 15.150385856628418 0
          26.343381881713867 -6.570470333099365 0 4.804198741912842 -44.6667594909668 0
          -16.98845863342285 -9.464432716369629 0 40.84696960449219 31.346118927001953 0
          -24.320314407348633 -36.52255630493164 0 -0.9991366267204285 -11.492111206054688 0
          21.433671951293945 -21.120100021362305 0 12.037934303283691 31.093582153320312 0
          -18.744037628173828 -12.126388549804688 0 -15.089007377624512 31.36260986328125 0
          17.355165481567383 -11.962066650390625 0 -4.230600357055664 -19.486814498901367 0
          40.74325180053711 -1.2588597536087036 0 25.518131256103516 -38.993770599365234 0
          -10.707111358642578 37.32985305786133 0 -13.432881355285645 41.978031158447266 0
          5.158523082733154 -36.135562896728516 0 -30.156816482543945 45.017459869384766 0
          49.648284912109375 -26.45722007751465 0 -48.379188537597656 -11.129353523254395 0
          28.0773983001709 -2.798525810241699 0 4.082564353942871 -48.30924606323242 0
          39.798770904541016 -29.735715866088867 0 38.4432487487793 -5.604825973510742 0
          -34.93308639526367 -25.889739990234375 0 29.652795791625977 -2.9061076641082764 0
          -41.077659606933594 14.481724739074707 0 13.698356628417969 8.24809741973877 0
          22.89168357849121 -14.412871360778809 0 18.596553802490234 21.33997344970703 0
          -33.597896575927734 -36.28810501098633 0 -5.097785472869873 -46.09274673461914 0
          29.866613388061523 -32.868595123291016 0 33.308616638183594 -17.095327377319336 0
          15.479455947875977 -8.034760475158691 0 28.134883880615234 -38.81171417236328 0