<?xml version="1.0"?>
<VTKFile type="PolyData" version="0.1" byte_order="LittleEndian" header_type="UInt32" compressor="vtkZLibDataCompressor">
  <PolyData>
    <Piece NumberOfPoints="154" NumberOfVerts="0" NumberOfLines="0" NumberOfStrips="0" NumberOfPolys="0">
      <PointData>
        <DataArray type="Int32" Name="id" format="ascii" RangeMin="0" RangeMax="153">
          0 1 2 3 4 5
          6 7 8 9 10 11
          12 13 14 15 16 17
          18 19 20 21 22 23
          24 25 26 27 28 29
          30 31 32 33 34 35
          36 37 38 39 40 41
          42 43 44 45 46 47
          48 49 50 51 52 53
          54 55 56 57 58 59
          60 61 62 63 64 65
          66 67 68 69 70 71
          72 73 74 75 76 77
          78 79 80 81 82 83
          84 85 86 87 88 89
          90 91 92 93 94 95
          96 97 98 99 100 101
          102 103 104 105 106 107
          108 109 110 111 112 113
          114 115 116 117 118 119
          120 121 122 123 124 125
          126 127 128 129 130 131
          132 133 134 135 136 137
          138 139 140 141 142 143
          144 145 146 147 148 149
          150 151 152 153
        </DataArray>
        <DataArray type="Float64" Name="director" NumberOfComponents="3" format="ascii" RangeMin="0.9999999999999999" RangeMax="1">
          -0.878100357795174 -0.4784765006141758 0 -0.123557872701039 -0.992337368082848 0
          -0.6011795228435672 -0.7991139976959363 0 0.07608100145492365 0.9971016403645196 0
          -0.8197114890302803 0.5727766360037397 0 0.6651247939741064 0.7467322200366758 0
          0.9828007759941509 -0.1846689868529494 0 0.762907366353248 0.6465078115258556 0
          0.9939746455451663 -0.1096102368091635 0 -0.3848590520491191 -0.9229753572310875 0
          -0.9153954226474417 0.40255585972149455 0 -0.9820288233778057 -0.1887309991898588 0
          0.19098111955641686 -0.9815937102350328 0 -0.5522581927069822 0.8336731305421914 0
          0.8965158887044644 0.44301158145182207 0 0.9987891402628785 0.04919606989323498 0
          -0.8336648700778448 -0.5522706622645187 0 -0.9982949051716891 0.05837193082508449 0
          0.99011171610441 -0.14028110932260393 0 -0.9147204803150821 -0.4040871723924745 0
          0.8126343281424789 0.5827739259133183 0 0.5747002902461399 -0.8183639632773444 0
          -0.8012531805996291 -0.5983254470428097 0 0.6909564391993767 0.7228963958472321 0
          -0.6874412850785957 -0.7262399600472896 0 -0.7576455062590319 0.652666290569304 0
          0.9018417213751414 -0.4320665568950249 0 0.9503196189391958 0.3112757970984279 0
          -0.9917558230351257 0.12814205974589477 0 -0.344057848960348 -0.9389484525621086 0
          0.5733065381794685 0.8193409627747618 0 -0.9999569246520064 -0.009281639968327817 0
          -0.9914758752614801 0.1302904016974467 0 0.12126798789771323 0.9926198039084452 0
          0.8456358407550146 -0.533760269063331 0 -0.5948020333404157 0.8038722169189 0
          0.6217996405861205 0.7831763575127708 0 -0.5633323335223249 -0.8262304049163841 0
          -0.8296158916627457 -0.5583345523076888 0 0.7584558550870852 0.6517244171305219 0
          -0.6072131647786759 0.7945389685342467 0 0.7239035730700638 -0.6899011645854751 0
          0.28127811475132336 -0.9596262929713532 0 -0.9996598784190664 0.026079253807909715 0
          0.16972522772000345 0.985491424151115 0 -0.7953785439747514 0.6061130024876586 0
          0.5891885114055705 -0.8079956052032016 0 -0.7137658088243457 0.7003844445398024 0
          -0.5045739082222532 -0.8633685025186645 0 -0.7932564802354866 0.6088876387022545 0
          0.802507955210344 -0.5966414181265934 0 0.903119559785135 -0.4293891716537619 0
          0.9693740775261629 -0.2455888796755684 0 0.4771158967611445 0.8788403842893252 0
          -0.3072646168671093 0.9516241144598578 0 -0.986023099049324 0.1666086676651824 0
          -0.8611188738084548 -0.5084036636088086 0 0.23139425088125984 0.9728600622181489 0
          -0.1318273448262827 -0.9912726926310703 0 0.8895375465809605 -0.4568620724274729 0
          -0.8226766973016939 -0.5685095001112797 0 -0.6511353171063577 -0.7589616583311722 0
          -0.9305292171174251 -0.36621766217760704 0 0.7430258754293128 -0.6692626901617207 0
          0.6677787830073959 -0.7443597899975262 0 -0.9369863621873163 0.34936593576789826 0
          0.9897430231100492 -0.1428591901313333 0 -0.7680264113702673 -0.6404181691970559 0
          -0.8193968519288151 0.5732266559129534 0 0.9526010444843458 0.304222369406547 0
          -0.314089244738281 0.9493934623430563 0 0.012159536782952502 0.999926070099797 0
          0.1002212578644667 0.9949651750046652 0 -0.015189948270956728 0.9998846260801921 0
          0.32297775075137075 -0.946406557732767 0 -0.9470143029804753 0.32119139146372605 0
          -0.9383328261957813 -0.3457332892323758 0 0.40457590650134756 -0.9145044209180253 0
          -0.2769955123133316 0.9608712120561606 0 0.3304609333088698 -0.9438196711006985 0
          -0.36053289402077077 0.9327464994997342 0 0.845223537339262 -0.5344129226803045 0
          -0.8208234959603032 -0.5711819224025793 0 -0.9727423947148823 -0.23188840748160736 0
          -0.9971948708108234 0.07484911241013756 0 0.197027052760142 0.9803980520587809 0
          -0.9696514841901058 -0.2444913070191351 0 0.14558078917768383 -0.9893463669627552 0
          0.9995106710569314 -0.03127968099777686 0 0.23990739081098308 0.9707957786446468 0
          0.29216055525188234 -0.9563692853468851 0 -0.592367227023077 -0.8056680882031945 0
          -0.8982714700228078 -0.43944097003245375 0 0.1646898637065765 -0.9863454003503587 0
          0.2951239475492351 0.9554589763998015 0 0.8719852967297327 0.4895320646159555 0
          -0.9824087242006079 0.18674340313524854 0 0.9999005261881847 0.014104528655414731 0
          -0.9856038419615609 -0.16907118829241868 0 0.9355210395531811 -0.3532709789288321 0
          -0.6681328133543141 0.74404203088216 0 0.654101228188747 -0.7564070222320604 0
          -0.654233619607664 -0.7562925168048764 0 0.999963282777405 0.008569311351309821 0
          -0.6433674226108282 0.7655575481458594 0 -0.9983861442278237 0.05679002565503344 0
          0.9039856879571319 0.42756271583087196 0 0.6470436942046063 -0.7624529216876645 0
          -0.23779571381072487 -0.971315190086744 0 -0.9998641058958556 -0.016485440275625714 0
          0.6483668186174296 0.761328095183616 0 0.25459235521768736 -0.9670484644859899 0
          0.2764581779178173 -0.9610259496300609 0 0.999492073100912 0.03186841396180553 0
          -0.06006494665613231 -0.9981944711243376 0 -0.3131237006794843 -0.9497123501738749 0
          -0.7083754948211382 -0.705835787089963 0 -0.8036337566763282 -0.5951241762273586 0
          -0.9103872317585266 0.41375728181029836 0 0.36417300654056883 -0.9313313166146636 0
          0.9936246752480029 0.1127386568054663 0 -0.10107754527956857 -0.9948785502965961 0
          0.8871833591545609 -0.4614170426406348 0 -0.3088657603718992 0.9511056419083469 0
          0.615154425281981 -0.7884066419405633 0 -0.40818142608176383 -0.912900828897563 0
          -0.9995345608356637 0.030506748352731865 0 0.7674769925735581 -0.6410764898748407 0
          -0.2057778095658803 0.9785987395711627 0 -0.8628692524033603 0.505427198770373 0
          0.6270933786444686 0.7789440894314978 0 0.8992629857300865 0.43740837039980196 0
          0.9151316297503649 0.40315518132654715 0 -0.9369890810791348 0.3493586437151348 0
          -0.8202033407807271 0.5720720931597122 0 -0.9829229923613373 0.18401736626588946 0
          0.808195668958742 0.5889140520282493 0 0.8004563645427396 0.5993910313501702 0
          -0.6965917976158371 -0.7174676769683332 0 0.39065874400725914 0.9205355754834632 0
          0.22208912123657285 -0.9750263700169175 0 0.9965796198746879 0.08263813435952329 0
          -0.9158806708554715 0.4014506155846961 0 0.7645378080903878 0.6445788857853981 0
          0.8858346400822471 -0.46400106727286283 0 -0.8764524652421154 -0.48148839671483096 0
          -0.05505044587435569 0.9984835744312646 0 -0.9910143712132115 -0.13375543371722537 0
          -0.643133814380452 0.7657538095239554 0 0.7233306361839199 0.6905018397931795 0
          -0.07762256004222617 -0.9969828173907969 0 0.4113452998215072 0.9114795907285881 0
          0.28126092427339183 0.9596313315418986 0 -0.03273100830999446 -0.9994641970050808 0
          <InformationKey name="L2_NORM_RANGE" location="vtkDataArray" length="2">
            <Value index="0">
              1
            </Value>
            <Value index="1">
              1
            </Value>
          </InformationKey>
        </DataArray>
        <DataArray type="Float64" Name="velocity" NumberOfComponents="3" format="ascii" RangeMin="2.98391528750295" RangeMax="65.61664053985334">
          20.472372037415383 -30.489259884928693 0 -7.778161120144524 43.605506408926914 0
          -35.778279556590725 14.318100471258902 0 -2.7267860528004704 -6.306708942777526 0
          -25.56803597993237 0.5919415230237348 0 40.69440930810454 -42.34960265147567 0
          21.390392053252754 11.720491675449018 0 -31.091580543867785 -10.301819378431787 0
          -22.233594277397 35.80993014386058 0 40.8936574712134 11.727908496204755 0
          -31.918129728714472 1.502371966558826 0 32.46317064138093 -14.067556233339687 0
          31.61170207931397 -20.66117562390716 0 -32.788218903188394 -0.7210412736466054 0
          -30.467523066969363 36.43074923190564 0 -29.58028331655805 11.627227611362315 0
          37.80505508071815 -10.753091333426255 0 44.65772551607054 -33.330173144632525 0
          47.18774005931614 6.396489460552942 0 9.836891189866492 -36.87781496106794 0
          6.677739541459459 5.438027088135769 0 -18.951003944933063 -37.93510690561732 0
          23.77908201111339 -25.727634747998636 0 32.285914726045576 -31.45240287607238 0
          -18.732306147503376 38.172541468590836 0 17.42129460906331 23.929755673071398 0
          -43.74567596165927 -36.843843838172035 0 -41.00470913383489 -49.1685554695042 0
          -4.3489588147394045 13.430332075080756 0 2.9762992276979077 -0.21305715242312573 0
          -16.420210149222868 -24.717665071237764 0 -26.63245586108499 -32.68369682188443 0
          9.59810303037343 22.68931438280859 0 37.757309281314306 20.71597266757422 0
          -26.523439665569285 -2.200425364398683 0 -48.17882370239545 24.733119867345934 0
          15.472358145094617 -42.19330576503555 0 -2.7230899171649696 49.647506705142575 0
          3.209752212846098 39.943600631846664 0 27.290092728339346 -29.624030405099575 0
          40.710862227344634 -12.518743865476708 0 34.808888796398136 -17.330075407408792 0
          -17.326333983387784 15.921061981020685 0 8.676498234140595 -45.101679767889145 0
          26.99656655139428 -0.8247828969564566 0 -1.181598492863479 -7.087342925864128 0
          -10.527228461045638 27.645380145270124 0 47.47543864880045 24.850515939083976 0
          13.45020038299144 -42.781974126121774 0 13.33632968921519 2.89206325620421 0
          -20.383234879262602 -17.467213088655853 0 13.111992425538233 49.45054225750374 0
          1.6047826830209004 22.445391370448775 0 -25.442525168919026 -16.766088433362327 0
          24.860911549332883 18.296648546241826 0 18.127137052491975 -42.11576276898946 0
          -4.106371249565804 19.81468592825003 0 -43.2115168522386 -43.085994704941484 0
          2.7042817825837204 -23.795120132132308 0 -1.6624837545658195 -36.91945356486498 0
          -40.55592314206473 -37.96183180819797 0 46.98372058379586 25.62816454897687 0
          -23.182362140209666 22.4905983535036 0 -8.42374893276238 -2.5281598168396826 0
          -44.45585735866184 11.374414308737222 0 -0.9380815156004232 40.44748670579848 0
          43.5214270198436 41.82766196839604 0 -19.617472876146607 29.010177679462174 0
          -27.377259211045168 -5.104813753149479 0 1.0108912986547693 -26.93680745999526 0
          21.18807799653547 48.4452609761332 0 15.521324819791857 -22.733301715898534 0
          -3.0984436752635744 -49.699879474370995 0 -5.357606698271908 47.09441502974741 0
          -19.533649987483585 -28.48909553641595 0 -25.241492794096537 30.645102659141713 0
          -1.3628901407151872 -9.249808436218693 0 -28.437070584076316 4.0252086974848424 0
          22.302423751473526 -21.630608392707323 0 4.286209731170565 25.592468486596516 0
          -16.80227135673981 30.176297340482108 0 35.70724318896097 -48.51082997011254 0
          38.494266527440914 9.308694076898924 0 -41.37827709570729 42.48759424258512 0
          41.371957205314274 48.07567751376408 0 40.00221093710812 44.971458396046486 0
          43.45219546574209 -49.16757290067578 0 27.77940311086799 -47.40411222574361 0
          8.787704962513757 14.978077069606684 0 -17.176354508003442 -38.89206379839693 0
          -37.572734230027905 47.39150589914381 0 3.322947059262674 16.230028184641725 0
          20.82576325094061 -43.12614201683975 0 -29.404442159877867 -6.6570323329381935 0
          -48.88074135310182 -43.07374742736768 0 -15.693819004659524 -18.776991949103287 0
          49.2742614956165 -23.093566379026992 0 35.70662412955289 -14.438908494432013 0
          24.676827977366614 34.48562696853686 0 -28.28613766609157 46.49521791482232 0
          21.219265309149932 48.266786794162286 0 25.989900495501132 -30.673962513745963 0
          -14.741048879365302 -30.369965831724773 0 33.206792723445574 45.25947670903301 0
          26.73700517552618 36.1968809297727 0 -4.433626259916984 -16.731616061562868 0
          33.82599634129042 5.430878965379037 0 -37.91344272052366 -28.781627030961573 0
          -0.8760744559602713 -9.034520229977083 0 25.951148963832622 -14.29357740625877 0
          27.17860558051683 48.15404052238152 0 34.61617221348607 33.462162550860555 0
          -13.28055184508198 -44.93740558320786 0 47.55616001461492 34.25892934866374 0
          36.946038841117556 -42.45015674570037 0 -46.76239316488481 11.393180618063838 0
          23.568028568935404 11.552780427737098 0 16.263007945057282 45.12644264060411 0
          -23.411248530157515 41.93857265065735 0 -38.160345232049345 -18.69342940760771 0
          37.21153998486223 -26.635630373860984 0 30.80584946405935 5.653176675427417 0
          44.35923105765637 0.370346282237378 0 16.64168251311186 -34.7034267378138 0
          47.322877480901255 13.376690736606477 0 -32.1350217035443 -42.58571958176201 0
          -0.5025219679409361 28.59799073613067 0 -3.5320261053794297 38.30316610148137 0
          14.736889949280638 40.32409694969634 0 -49.402638529229115 19.356180838194604 0
          8.508964450503598 -39.46387075781778 0 49.03198966734128 -27.000797471280585 0
          -16.70921662991016 18.938285128010065 0 46.14207459237997 -27.3400906744995 0
          42.424140585792586 37.62461911345025 0 -6.825547086494495 -2.911259141055119 0
          6.210247997996007 33.76154121673389 0 -35.16911208657487 13.927818279591207 0
          49.5593687100304 13.93941034113417 0 -6.0481675260535965 -47.161165000275155 0
          -41.68490984500472 3.0367185203014984 0 28.200151364646487 23.664522522360798 0
          -30.983903256438072 -23.817273645282434 0 -4.775523168997552 -3.9973115200368454 0
          17.36371431475763 -32.304692769073746 0 -31.21691646176371 -40.35131875297581 0
          -17.61253928181918 -32.96735050248542 0 -47.52659271635095 33.064298464373394 0
          -25.51716157275273 -35.79649925661745 0 -34.4558032257712 -19.698927528483058 0
          -46.64276824331557 -9.071061809886274 0 28.312364537561464 -5.662808823633235 0
          -48.25117889494449 -21.421563451189467 0 45.139670111270334 -32.86849758057289 0
          <InformationKey name="L2_NORM_RANGE" location="vtkDataArray" length="2">
            <Value index="0">
              2.9839152875
            </Value>
            <Value index="1">
              65.61664054
            </Value>
          </InformationKey>
        </DataArray>
        <DataArray type="Float64" Name="force" NumberOfComponents="3" format="ascii" RangeMin="0.49999999999999994" RangeMax="0.5">
          -0.439050178897587 -0.2392382503070879 0 -0.0617789363505195 -0.496168684041424 0
          -0.3005897614217836 -0.39955699884796814 0 0.038040500727461825 0.4985508201822598 0
          -0.4098557445151402 0.28638831800186987 0 0.3325623969870532 0.3733661100183379 0
          0.49140038799707547 -0.0923344934264747 0 0.381453683176624 0.3232539057629278 0
          0.4969873227725832 -0.05480511840458175 0 -0.19242952602455954 -0.46148767861554374 0
          -0.45769771132372083 0.20127792986074727 0 -0.49101441168890286 -0.0943654995949294 0
          0.09549055977820843 -0.4907968551175164 0 -0.2761290963534911 0.4168365652710957 0
          0.4482579443522322 0.22150579072591103 0 0.49939457013143923 0.02459803494661749 0
          -0.4168324350389224 -0.27613533113225935 0 -0.49914745258584453 0.029185965412542245 0
          0.495055858052205 -0.07014055466130197 0 -0.45736024015754106 -0.20204358619623725 0
          0.40631716407123947 0.29138696295665917 0 0.28735014512306994 -0.4091819816386722 0
          -0.40062659029981457 -0.2991627235214048 0 0.34547821959968833 0.36144819792361604 0
          -0.34372064253929785 -0.3631199800236448 0 -0.37882275312951597 0.326333145284652 0
          0.4509208606875707 -0.21603327844751244 0 0.4751598094695979 0.15563789854921395 0
          -0.49587791151756283 0.06407102987294738 0 -0.172028924480174 -0.4694742262810543 0
          0.28665326908973426 0.4096704813873809 0 -0.4999784623260032 -0.004640819984163908 0
          -0.49573793763074003 0.06514520084872336 0 0.060633993948856615 0.4963099019542226 0
          0.4228179203775073 -0.2668801345316655 0 -0.29740101667020785 0.40193610845945 0
          0.31089982029306024 0.3915881787563854 0 -0.28166616676116246 -0.41311520245819205 0
          -0.41480794583137287 -0.2791672761538444 0 0.3792279275435426 0.32586220856526094 0
          -0.30360658238933796 0.39726948426712333 0 0.3619517865350319 -0.34495058229273756 0
          0.14063905737566168 -0.4798131464856766 0 -0.4998299392095332 0.013039626903954857 0
          0.08486261386000173 0.4927457120755575 0 -0.3976892719873757 0.3030565012438293 0
          0.29459425570278525 -0.4039978026016008 0 -0.35688290441217285 0.3501922222699012 0
          -0.2522869541111266 -0.43168425125933224 0 -0.3966282401177433 0.30444381935112724 0
          0.401253977605172 -0.2983207090632967 0 0.4515597798925675 -0.21469458582688095 0
          0.48468703876308145 -0.1227944398377842 0 0.23855794838057226 0.4394201921446626 0
          -0.15363230843355466 0.4758120572299289 0 -0.493011549524662 0.0833043338325912 0
          -0.4305594369042274 -0.2542018318044043 0 0.11569712544062992 0.48643003110907446 0
          -0.06591367241314135 -0.49563634631553516 0 0.44476877329048026 -0.22843103621373645 0
          -0.41133834865084695 -0.2842547500556398 0 -0.3255676585531789 -0.3794808291655861 0
          -0.46526460855871254 -0.18310883108880352 0 0.3715129377146564 -0.33463134508086034 0
          0.33388939150369795 -0.3721798949987631 0 -0.4684931810936582 0.17468296788394913 0
          0.4948715115550246 -0.07142959506566665 0 -0.38401320568513364 -0.3202090845985279 0
          -0.40969842596440753 0.2866133279564767 0 0.4763005222421729 0.1521111847032735 0
          -0.1570446223691405 0.47469673117152816 0 0.006079768391476251 0.4999630350498985 0
          0.05011062893223335 0.4974825875023326 0 -0.007594974135478364 0.49994231304009606 0
          0.16148887537568538 -0.4732032788663835 0 -0.47350715149023764 0.16059569573186303 0
          -0.46916641309789064 -0.1728666446161879 0 0.20228795325067378 -0.45725221045901265 0
          -0.1384977561566658 0.4804356060280803 0 0.1652304666544349 -0.47190983555034927 0
          -0.18026644701038538 0.4663732497498671 0 0.422611768669631 -0.26720646134015225 0
          -0.4104117479801516 -0.28559096120128963 0 -0.48637119735744117 -0.11594420374080368 0
          -0.4985974354054117 0.03742455620506878 0 0.098513526380071 0.49019902602939047 0
          -0.4848257420950529 -0.12224565350956755 0 0.07279039458884191 -0.4946731834813776 0
          0.4997553355284657 -0.01563984049888843 0 0.11995369540549154 0.4853978893223234 0
          0.14608027762594117 -0.4781846426734426 0 -0.2961836135115385 -0.40283404410159723 0
          -0.4491357350114039 -0.21972048501622687 0 0.08234493185328826 -0.49317270017517933 0
          0.14756197377461755 0.47772948819990074 0 0.43599264836486634 0.24476603230797775 0
          -0.49120436210030394 0.09337170156762427 0 0.49995026309409235 0.0070522643277073655 0
          -0.49280192098078046 -0.08453559414620934 0 0.46776051977659056 -0.17663548946441604 0
          -0.33406640667715704 0.37202101544108 0 0.3270506140943735 -0.3782035111160302 0
          -0.327116809803832 -0.3781462584024382 0 0.4999816413887025 0.0042846556756549106 0
          -0.3216837113054141 0.3827787740729297 0 -0.49919307211391184 0.02839501282751672 0
          0.45199284397856593 0.21378135791543598 0 0.32352184710230314 -0.38122646084383227 0
          -0.11889785690536243 -0.485657595043372 0 -0.4999320529479278 -0.008242720137812857 0
          0.3241834093087148 0.380664047591808 0 0.12729617760884368 -0.48352423224299496 0
          0.13822908895890865 -0.48051297481503047 0 0.499746036550456 0.015934206980902765 0
          -0.030032473328066155 -0.4990972355621688 0 -0.15656185033974215 -0.47485617508693745 0
          -0.3541877474105691 -0.3529178935449815 0 -0.4018168783381641 -0.2975620881136793 0
          -0.4551936158792633 0.20687864090514918 0 0.18208650327028442 -0.4656656583073318 0
          0.49681233762400145 0.05636932840273315 0 -0.050538772639784284 -0.49743927514829805 0
          0.44359167957728046 -0.2307085213203174 0 -0.1544328801859496 0.47555282095417345 0
          0.3075772126409905 -0.39420332097028166 0 -0.20409071304088192 -0.4564504144487815 0
          -0.49976728041783186 0.015253374176365932 0 0.38373849628677903 -0.32053824493742034 0
          -0.10288890478294015 0.48929936978558136 0 -0.43143462620168016 0.2527135993851865 0
          0.3135466893222343 0.3894720447157489 0 0.4496314928650432 0.21870418519990098 0
          0.45756581487518244 0.20157759066327358 0 -0.4684945405395674 0.1746793218575674 0
          -0.41010167039036355 0.2860360465798561 0 -0.49146149618066864 0.09200868313294473 0
          0.404097834479371 0.29445702601412466 0 0.4002281822713698 0.2996955156750851 0
          -0.34829589880791856 -0.3587338384841666 0 0.19532937200362957 0.4602677877417316 0
          0.11104456061828642 -0.48751318500845875 0 0.49828980993734395 0.041319067179761644 0
          -0.45794033542773577 0.20072530779234804 0 0.3822689040451939 0.32228944289269906 0
          0.44291732004112355 -0.23200053363643142 0 -0.4382262326210577 -0.24074419835741548 0
          -0.027525222937177844 0.4992417872156323 0 -0.4955071856066057 -0.06687771685861268 0
          -0.321566907190226 0.3828769047619777 0 0.36166531809195995 0.34525091989658974 0
          -0.03881128002111309 -0.49849140869539843 0 0.2056726499107536 0.45573979536429404 0
          0.14063046213669592 0.4798156657709493 0 -0.01636550415499723 -0.4997320985025404 0
          <InformationKey name="L2_NORM_RANGE" location="vtkDataArray" length="2">
            <Value index="0">
              0.5
            </Value>
            <Value index="1">
              0.5
            </Value>
          </InformationKey>
        </DataArray>
        <DataArray type="Float64" Name="radius" format="ascii" RangeMin="1" RangeMax="1">
          1 1 1 1 1 1
          1 1 1 1 1 1
          1 1 1 1 1 1
          1 1 1 1 1 1
          1 1 1 1 1 1
          1 1 1 1 1 1
          1 1 1 1 1 1
          1 1 1 1 1 1
          1 1 1 1 1 1
          1 1 1 1 1 1
          1 1 1 1 1 1
          1 1 1 1 1 1
          1 1 1 1 1 1
          1 1 1 1 1 1
          1 1 1 1 1 1
          1 1 1 1 1 1
          1 1 1 1 1 1
          1 1 1 1 1 1
          1 1 1 1 1 1
          1 1 1 1 1 1
          1 1 1 1 1 1
          1 1 1 1 1 1
          1 1 1 1 1 1
          1 1 1 1 1 1
          1 1 1 1 1 1
          1 1 1 1
        </DataArray>
      </PointData>
      <CellData>
      </CellData>
      <Points>
        <DataArray type="Float32" Name="Points" NumberOfComponents="3" format="ascii" RangeMin="2.5169970518094202" RangeMax="67.47160696902175">
          -36.975765228271484 33.59412384033203 0 47.04817581176758 -27.861011505126953 0
          -18.878726959228516 4.278923034667969 0 -31.200393676757812 49.20200729370117 0
          48.758480072021484 46.63719940185547 0 22.499526977539062 48.765384674072266 0
          -39.228973388671875 29.59194564819336 0 -20.300153732299805 -50.06159210205078 0
          -38.726318359375 13.822704315185547 0 37.44887161254883 0.5921622514724731 0
          30.014612197875977 -13.244816780090332 0 -28.49823760986328 18.07343101501465 0
          -10.625060081481934 24.004684448242188 0 -2.9329071044921875 -7.635496616363525 0
          -32.47868347167969 -19.68926429748535 0 29.453454971313477 -18.898643493652344 0
          37.098243713378906 -35.497562408447266 0 49.24549102783203 31.71518898010254 0
          -37.409481048583984 26.21752166748047 0 -1.4555729627609253 15.537554740905762 0
          -38.10420608520508 -29.35530662536621 0 -45.09849166870117 -45.96767807006836 0
          -8.791488647460938 -4.302531719207764 0 -1.1384166479110718 29.756511688232422 0
          41.81589889526367 30.66744041442871 0 21.271392822265625 -49.51728439331055 0
          20.448549270629883 14.437027931213379 0 -4.39697265625 27.083127975463867 0
          7.836143970489502 37.78105163574219 0 30.705608367919922 -47.546775817871094 0
          32.65108871459961 32.25898742675781 0 43.694122314453125 -8.89932632446289 0
          -7.876062393188477 7.803774833679199 0 -34.07643508911133 26.583515167236328 0
          -26.418752670288086 30.951339721679688 0 49.29952621459961 -17.090166091918945 0
          -20.48902130126953 -48.71350860595703 0 -29.193090438842773 40.4415397644043 0
          34.899635314941406 45.74297332763672 0 27.748668670654297 49.183780670166016 0
          -43.24094772338867 29.630992889404297 0 8.89291763305664 23.86943817138672 0
          19.31644630432129 18.2076358795166 0 -10.612833023071289 5.768372058868408 0
          -29.322763442993164 2.253685474395752 0 -9.63322639465332 -14.752223014831543 0
          9.59773063659668 -14.011027336120605 0 46.88574981689453 -34.70491409301758 0
          -10.496964454650879 -11.178499221801758 0 22.380308151245117 -11.318318367004395 0
          42.668128967285156 -6.034168720245361 0 35.555660247802734 11.859184265136719 0
          -37.27416229248047 -2.421854257583618 0 -15.715160369873047 2.996708393096924 0
          21.496660232543945 48.738670349121094 0 21.858186721801758 41.75059127807617 0
          0.3620363175868988 5.900787353515625 0 0.2317638397216797 -4.058356761932373 0
          4.859185218811035 -5.493325710296631 0 35.308441162109375 10.740132331848145 0
          0.5392812490463257 47.41642761230469 0 -47.194114685058594 47.89252471923828 0
          -13.463614463806152 17.98366355895996 0 -14.893704414367676 35.17848587036133 0
          -45.549560546875 15.878409385681152 0 24.865798950195312 -36.05455017089844 0
          48.38198471069336 -40.230159759521484 0 -22.366256713867188 30.25303840637207 0
          -42.41791534423828 12.704901695251465 0 -49.41094970703125 18.5190372467041 0
          3.1694133281707764 -5.93822717666626 0 -29.66192626953125 -36.115352630615234 0
          -11.380812644958496 26.815563201904297 0 -46.07511520385742 -24.722911834716797 0
          1.2608658075332642 32.725624084472656 0 47.955039978027344 32.312625885009766 0
          -19.319530487060547 -44.40485763549805 0 -24.274402618408203 3.7086305618286133 0
          38.8567008972168 -15.495790481567383 0 -47.06898498535156 -33.66561508178711 0
          38.06730651855469 -29.535356521606445 0 -23.266408920288086 -0.7680584788322449 0
          -27.3580379486084 -0.376313716173172 0 44.82339096069336 15.146574974060059 0
          26.50827407836914 -6.556267738342285 0 4.721461772918701 -44.64004135131836 0
          -17.026988983154297 -9.4178466796875 0 40.5940055847168 31.426897048950195 0
          -24.369291305541992 -36.46329116821289 0 -1.0619834661483765 -11.633574485778809 0
          21.292892456054688 -20.994985580444336 0 12.157716751098633 31.15057945251465 0
          -18.730867385864258 -12.005308151245117 0 -15.250022888183594 31.255735397338867 0
          17.22954750061035 -11.989954948425293 0 -4.146969795227051 -19.311357498168945 0
          40.61494827270508 -1.31142258644104 0 25.600923538208008 -39.05205535888672 0
          -10.819799423217773 37.32268142700195 0 -13.392197608947754 42.000770568847656 0
          5.310634613037109 -36.14212417602539 0 -30.099565505981445 45.046348571777344 0
          49.705448150634766 -26.540952682495117 0 -48.29336166381836 -11.245575904846191 0
          28.128923416137695 -2.7490336894989014 0 4.068794250488281 -48.09463119506836 0
          39.95298385620117 -29.958335876464844 0 38.3376350402832 -5.415160655975342 0
          -34.85661697387695 -25.810945510864258 0 29.52718734741211 -2.8316802978515625 0
          -41.01716995239258 14.372532844543457 0 13.661362648010254 8.214452743530273 0
          22.690876007080078 -14.416922569274902 0 18.56247901916504 21.23380470275879 0
          -33.7027587890625 -36.269065856933594 0 -4.92173433303833 -46.06489181518555 0
          29.896291732788086 -32.89677047729492 0 33.25973129272461 -16.989107131958008 0
          15.685239791870117 -7.85291051864624 0 27.958017349243164 -38.79795455932617 0