<?xml version="1.0"?>
<VTKFile type="PolyData" version="0.1" byte_order="LittleEndian" header_type="UInt32" compressor="vtkZLibDataCompressor">
  <PolyData>
    <Piece NumberOfPoints="154" NumberOfVerts="0" NumberOfLines="0" NumberOfStrips="0" NumberOfPolys="0">
      <PointData>
        <DataArray type="Int32" Name="id" format="ascii" RangeMin="0" RangeMax="153">
          0 1 2 3 4 5
          6 7 8 9 10 11
          12 13 14 15 16 17
          18 19 20 21 22 23
          24 25 26 27 28 29
          30 31 32 33 34 35
          36 37 38 39 40 41
          42 43 44 45 46 47
          48 49 50 51 52 53
          54 55 56 57 58 59
          60 61 62 63 64 65
          66 67 68 69 70 71
          72 73 74 75 76 77
          78 79 80 81 82 83
          84 85 86 87 88 89
          90 91 92 93 94 95
          96 97 98 99 100 101
          102 103 104 105 106 107
          108 109 110 111 112 113
          114 115 116 117 118 119
          120 121 122 123 124 125
          126 127 128 129 130 131
          132 133 134 135 136 137
          138 139 140 141 142 143
          144 145 146 147 148 149
          150 151 152 153
        </DataArray>
        <DataArray type="Float64" Name="director" NumberOfComponents="3" format="ascii" RangeMin="0.9999999999999999" RangeMax="1">
          -0.8840423237939591 -0.467406856754345 0 -0.0374538475769874 -0.9992983585004429 0
          -0.6232620494523515 -0.7820130546943923 0 -0.03747591889200996 0.999297531020266 0
          -0.8559936205200566 0.5169863843748358 0 0.5643263808074167 0.8255517766468694 0
          0.9900748178449267 -0.1405412931110824 0 0.7521878452809876 0.6589487426283968 0
          0.9902287089352564 -0.1394528737617667 0 -0.4278278103643703 -0.9038602572736719 0
          -0.9227902552658583 0.38530266646672984 0 -0.9808884762724778 -0.19457080232104937 0
          0.20000340778186976 -0.9797952014965368 0 -0.4455420999863797 0.8952609882820355 0
          0.8822807478811745 0.47072357272420023 0 0.9955884464396899 0.09382774278327607 0
          -0.7727743909885834 -0.6346808179173403 0 -0.9672602316218419 0.25378661178805434 0
          0.9776530809203403 -0.21022476868096804 0 -0.9274008054869959 -0.3740691727235369 0
          0.8589608678856808 0.5120412360748674 0 0.4982559246226748 -0.8670300073113983 0
          -0.8726440742731351 -0.4883567544694997 0 0.734737980786117 0.6783510150286056 0
          -0.7330493986322324 -0.6801754032342852 0 -0.7407598188519289 0.6717699686458584 0
          0.8814194143231093 -0.47233443242506346 0 0.9432518655036155 0.3320781808911108 0
          -0.9923956826107372 0.12308862309559335 0 -0.3290315168846714 -0.9443189402403047 0
          0.5442467267042221 0.8389252055289195 0 -0.9982866046732094 -0.058513715742852856 0
          -0.9988500293395538 0.0479439139867872 0 0.09273515855535464 0.9956908106273319 0
          0.8664632740753296 -0.4992408183218397 0 -0.5522003681625438 0.8337114329317735 0
          0.5439667391154208 0.8391067791027169 0 -0.5988260026881728 -0.8008791534960219 0
          -0.829262245371084 -0.5588596678971459 0 0.8064884843991812 0.5912497987581152 0
          -0.6060449128761813 0.7954304266099592 0 0.7803969535503408 -0.6252844111996935 0
          0.3049465767635902 -0.9523694584142058 0 -0.9888908856641607 0.1486432516138951 0
          0.22318146791847937 0.9747769141592104 0 -0.8534555419732934 0.5211656530078242 0
          0.6113737714141605 -0.7913419688268947 0 -0.8129241380784532 0.5823695954712986 0
          -0.47930537728157374 -0.877648195639328 0 -0.7564481711643373 0.6540536402636481 0
          0.8584377980669947 -0.5129176803834019 0 0.9095984236078266 -0.4154885170135955 0
          0.9543475120009268 -0.2986985542945275 0 0.5363030079174445 0.8440255231322698 0
          -0.4255024296763599 0.9049572820523156 0 -0.9890282556388462 0.14772646867769199 0
          -0.8437276786290747 -0.5367714637675821 0 0.2697567456026438 0.9629285010850341 0
          -0.20304693967076598 -0.9791690049681598 0 0.8944108640706786 -0.44724624786837736 0
          -0.8309379756780252 -0.5563650605278028 0 -0.66207891775756 -0.7494341242971113 0
          -0.9036015769125765 -0.42837389066224035 0 0.7617943778420532 -0.6478188989897092 0
          0.6774125264067405 -0.7356033367700536 0 -0.9515330268478188 0.30754657991567397 0
          0.9877152129660299 -0.15626470514953203 0 -0.7760704299420899 -0.630646246139228 0
          -0.8079247012732547 0.5892857346589363 0 0.985276985109725 0.17096567671053384 0
          -0.3010480549873298 0.9536089704844148 0 0.06444946902538531 0.9979209717920282 0
          0.08949079604792548 0.9959876492320117 0 0.002165052812751501 0.9999976562704125 0
          0.2617714097761266 -0.9651299026679357 0 -0.9551069657714181 0.2962611752068015 0
          -0.9217655553535125 -0.3877476769289929 0 0.5397303880932386 -0.8418379346220518 0
          -0.26822874327931373 0.9633552518561364 0 0.26623478970793696 -0.9639082097114696 0
          -0.30454951896897003 0.952496504190839 0 0.8937896482302051 -0.44848641530878747 0
          -0.7681372913536076 -0.6402851721162555 0 -0.9898693268897838 -0.14198139202996388 0
          -0.9941345134849113 0.10815067775154559 0 0.21091695668398713 0.977503983308081 0
          -0.9829139990335215 -0.18406539735629446 0 -0.000311859106433027 -0.9999999513719476 0
          0.9999208187382064 -0.01258396813072541 0 0.1676911405850804 0.985839581965177 0
          0.3927701522934545 -0.9196366714455098 0 -0.5973146292266363 -0.8020070035304219 0
          -0.8550784174912621 -0.5184986981089141 0 0.031852593707598416 -0.999492577398201 0
          0.34536031752559904 0.9384701652575949 0 0.8901429494056247 0.4556813904730536 0
          -0.9870055300550362 0.16068628952333502 0 0.9983929474364697 0.0566702965328292 0
          -0.9684914314149955 -0.2490468776671034 0 0.9192881831098363 -0.3935851069268452 0
          -0.6028787317859604 0.7978328363511695 0 0.6577390246235233 -0.7532458931101425 0
          -0.6077998164689817 -0.7940902864915753 0 0.99964084479055 0.026798907187334815 0
          -0.6511427019956153 0.7589553225571644 0 -0.9817130262648064 0.19036684076276392 0
          0.9029823347385626 0.42967767355320474 0 0.6772491861496078 -0.7357537222873519 0
          -0.1420225554274377 -0.989863421765781 0 -0.9965489796017298 -0.08300681450791302 0
          0.6607223952576344 0.7506303460459178 0 0.29488706410806637 -0.9555321132341524 0
          0.1926373975426003 -0.9812700102764856 0 0.996610282932082 0.0822675145731011 0
          -0.05861183304436128 -0.9982808487731195 0 -0.31430319157763353 -0.9493226552464201 0
          -0.7318225367944717 -0.6814952491688435 0 -0.8016766756984715 -0.5977579005258298 0
          -0.9103391652357538 0.4138630259371704 0 0.3733951499571156 -0.9276723893641026 0
          0.9873856520664938 0.1583337427500058 0 -0.11603590951686182 -0.9932450189669186 0
          0.9089255168089911 -0.41695851699360736 0 -0.22602270646134853 0.9741220335070381 0
          0.5913285507394821 -0.8064307441314126 0 -0.45492606149157594 -0.8905292126459203 0
          -0.9904050896982151 0.13819463918644118 0 0.8178686338707444 -0.5754049858407575 0
          -0.1738322461502494 0.9847752790349477 0 -0.7849456361678959 0.6195646441340702 0
          0.6787543827916154 0.7343653639988568 0 0.8688326809904047 0.4951058194396685 0
          0.9398097362453001 0.34169819967120046 0 -0.9358592697094041 0.35237398782966484 0
          -0.8428623918404325 0.5381291558919895 0 -0.9832138871213634 0.1824567131450607 0
          0.8872924413643015 0.46120724571257293 0 0.8120474658589802 0.5835913923217239 0
          -0.7043064423591361 -0.709896073556839 0 0.36662828375279793 0.9303675088654364 0
          0.2856170226323888 -0.9583438403739075 0 0.9984759132290898 0.055189226315787515 0
          -0.9317465627997417 0.3631092710340334 0 0.861712590369641 0.5073967004213205 0
          0.8900079507772443 -0.4559450049658296 0 -0.8433551462860487 -0.5373565829436142 0
          -0.030602801758811353 0.9995316245744859 0 -0.99619894116501 -0.087107230593752 0
          -0.67192406196419 0.7406200476314042 0 0.7343114708902481 0.6788126867693328 0
          0.004118108737933232 -0.9999915205542608 0 0.5346582099927805 0.8450683987035108 0
          0.39715390699297565 0.9177520221498915 0 -0.12576140597421961 -0.9920605166860474 0
          <InformationKey name="L2_NORM_RANGE" location="vtkDataArray" length="2">
            <Value index="0">
              1
            </Value>
            <Value index="1">
              1
            </Value>
          </InformationKey>
        </DataArray>
        <DataArray type="Float64" Name="velocity" NumberOfComponents="3" format="ascii" RangeMin="2.98391528750295" RangeMax="65.61664053985334">
          20.472372037415383 -30.489259884928693 0 -7.778161120144524 43.605506408926914 0
          -35.778279556590725 14.318100471258902 0 -2.7267860528004704 -6.306708942777526 0
          -25.56803597993237 0.5919415230237348 0 40.69440930810454 -42.34960265147567 0
          21.390392053252754 11.720491675449018 0 -31.091580543867785 -10.301819378431787 0
          -22.233594277397 35.80993014386058 0 40.8936574712134 11.727908496204755 0
          -31.918129728714472 1.502371966558826 0 32.46317064138093 -14.067556233339687 0
          31.61170207931397 -20.66117562390716 0 -32.788218903188394 -0.7210412736466054 0
          -30.467523066969363 36.43074923190564 0 -29.58028331655805 11.627227611362315 0
          37.80505508071815 -10.753091333426255 0 44.65772551607054 -33.330173144632525 0
          47.18774005931614 6.396489460552942 0 9.836891189866492 -36.87781496106794 0
          6.677739541459459 5.438027088135769 0 -18.951003944933063 -37.93510690561732 0
          23.77908201111339 -25.727634747998636 0 32.285914726045576 -31.45240287607238 0
          -18.732306147503376 38.172541468590836 0 17.42129460906331 23.929755673071398 0
          -43.74567596165927 -36.843843838172035 0 -41.00470913383489 -49.1685554695042 0
          -4.3489588147394045 13.430332075080756 0 2.9762992276979077 -0.21305715242312573 0
          -16.420210149222868 -24.717665071237764 0 -26.63245586108499 -32.68369682188443 0
          9.59810303037343 22.68931438280859 0 37.757309281314306 20.71597266757422 0
          -26.523439665569285 -2.200425364398683 0 -48.17882370239545 24.733119867345934 0
          15.472358145094617 -42.19330576503555 0 -2.7230899171649696 49.647506705142575 0
          3.209752212846098 39.943600631846664 0 27.290092728339346 -29.624030405099575 0
          40.710862227344634 -12.518743865476708 0 34.808888796398136 -17.330075407408792 0
          -17.326333983387784 15.921061981020685 0 8.676498234140595 -45.101679767889145 0
          26.99656655139428 -0.8247828969564566 0 -1.181598492863479 -7.087342925864128 0
          -10.527228461045638 27.645380145270124 0 47.47543864880045 24.850515939083976 0
          13.45020038299144 -42.781974126121774 0 13.33632968921519 2.89206325620421 0
          -20.383234879262602 -17.467213088655853 0 13.111992425538233 49.45054225750374 0
          1.6047826830209004 22.445391370448775 0 -25.442525168919026 -16.766088433362327 0
          24.860911549332883 18.296648546241826 0 18.127137052491975 -42.11576276898946 0
          -4.106371249565804 19.81468592825003 0 -43.2115168522386 -43.085994704941484 0
          2.7042817825837204 -23.795120132132308 0 -1.6624837545658195 -36.91945356486498 0
          -40.55592314206473 -37.96183180819797 0 46.98372058379586 25.62816454897687 0
          -23.182362140209666 22.4905983535036 0 -8.42374893276238 -2.5281598168396826 0
          -44.45585735866184 11.374414308737222 0 -0.9380815156004232 40.44748670579848 0
          43.5214270198436 41.82766196839604 0 -19.617472876146607 29.010177679462174 0
          -27.377259211045168 -5.104813753149479 0 1.0108912986547693 -26.93680745999526 0
          21.18807799653547 48.4452609761332 0 15.521324819791857 -22.733301715898534 0
          -3.0984436752635744 -49.699879474370995 0 -5.357606698271908 47.09441502974741 0
          -19.533649987483585 -28.48909553641595 0 -25.241492794096537 30.645102659141713 0
          -1.3628901407151872 -9.249808436218693 0 -28.437070584076316 4.0252086974848424 0
          22.302423751473526 -21.630608392707323 0 4.286209731170565 25.592468486596516 0
          -16.80227135673981 30.176297340482108 0 35.70724318896097 -48.51082997011254 0
          38.494266527440914 9.308694076898924 0 -41.37827709570729 42.48759424258512 0
          41.371957205314274 48.07567751376408 0 40.00221093710812 44.971458396046486 0
          43.45219546574209 -49.16757290067578 0 27.77940311086799 -47.40411222574361 0
          8.787704962513757 14.978077069606684 0 -17.176354508003442 -38.89206379839693 0
          -37.572734230027905 47.39150589914381 0 3.322947059262674 16.230028184641725 0
          20.82576325094061 -43.12614201683975 0 -29.404442159877867 -6.6570323329381935 0
          -48.88074135310182 -43.07374742736768 0 -15.693819004659524 -18.776991949103287 0
          49.2742614956165 -23.093566379026992 0 35.70662412955289 -14.438908494432013 0
          24.676827977366614 34.48562696853686 0 -28.28613766609157 46.49521791482232 0
          21.219265309149932 48.266786794162286 0 25.989900495501132 -30.673962513745963 0
          -14.741048879365302 -30.369965831724773 0 33.206792723445574 45.25947670903301 0
          26.73700517552618 36.1968809297727 0 -4.433626259916984 -16.731616061562868 0
          33.82599634129042 5.430878965379037 0 -37.91344272052366 -28.781627030961573 0
          -0.8760744559602713 -9.034520229977083 0 25.951148963832622 -14.29357740625877 0
          27.17860558051683 48.15404052238152 0 34.61617221348607 33.462162550860555 0
          -13.28055184508198 -44.93740558320786 0 47.55616001461492 34.25892934866374 0
          36.946038841117556 -42.45015674570037 0 -46.76239316488481 11.393180618063838 0
          23.568028568935404 11.552780427737098 0 16.263007945057282 45.12644264060411 0
          -23.411248530157515 41.93857265065735 0 -38.160345232049345 -18.69342940760771 0
          37.21153998486223 -26.635630373860984 0 30.80584946405935 5.653176675427417 0
          44.35923105765637 0.370346282237378 0 16.64168251311186 -34.7034267378138 0
          47.322877480901255 13.376690736606477 0 -32.1350217035443 -42.58571958176201 0
          -0.5025219679409361 28.59799073613067 0 -3.5320261053794297 38.30316610148137 0
          14.736889949280638 40.32409694969634 0 -49.402638529229115 19.356180838194604 0
          8.508964450503598 -39.46387075781778 0 49.03198966734128 -27.000797471280585 0
          -16.70921662991016 18.938285128010065 0 46.14207459237997 -27.3400906744995 0
          42.424140585792586 37.62461911345025 0 -6.825547086494495 -2.911259141055119 0
          6.210247997996007 33.76154121673389 0 -35.16911208657487 13.927818279591207 0
          49.5593687100304 13.93941034113417 0 -6.0481675260535965 -47.161165000275155 0
          -41.68490984500472 3.0367185203014984 0 28.200151364646487 23.664522522360798 0
          -30.983903256438072 -23.817273645282434 0 -4.775523168997552 -3.9973115200368454 0
          17.36371431475763 -32.304692769073746 0 -31.21691646176371 -40.35131875297581 0
          -17.61253928181918 -32.96735050248542 0 -47.52659271635095 33.064298464373394 0
          -25.51716157275273 -35.79649925661745 0 -34.4558032257712 -19.698927528483058 0
          -46.64276824331557 -9.071061809886274 0 28.312364537561464 -5.662808823633235 0
          -48.25117889494449 -21.421563451189467 0 45.139670111270334 -32.86849758057289 0
          <InformationKey name="L2_NORM_RANGE" location="vtkDataArray" length="2">
            <Value index="0">
              2.9839152875
            </Value>
            <Value index="1">
              65.61664054
            </Value>
          </InformationKey>
        </DataArray>
        <DataArray type="Float64" Name="force" NumberOfComponents="3" format="ascii" RangeMin="0.49999999999999994" RangeMax="0.5">
          -0.44202116189697954 -0.2337034283771725 0 -0.0187269237884937 -0.49964917925022145 0
          -0.31163102472617576 -0.39100652734719615 0 -0.01873795944600498 0.499648765510133 0
          -0.4279968102600283 0.2584931921874179 0 0.28216319040370835 0.4127758883234347 0
          0.49503740892246334 -0.0702706465555412 0 0.3760939226404938 0.3294743713141984 0
          0.4951143544676282 -0.06972643688088336 0 -0.21391390518218514 -0.45193012863683596 0
          -0.46139512763292917 0.19265133323336492 0 -0.4904442381362389 -0.09728540116052468 0
          0.10000170389093488 -0.4898976007482684 0 -0.22277104999318986 0.44763049414101774 0
          0.44114037394058725 0.23536178636210012 0 0.49779422321984496 0.04691387139163804 0
          -0.3863871954942917 -0.31734040895867016 0 -0.48363011581092097 0.12689330589402717 0
          0.48882654046017016 -0.10511238434048402 0 -0.46370040274349794 -0.18703458636176845 0
          0.4294804339428404 0.2560206180374337 0 0.2491279623113374 -0.43351500365569917 0
          -0.43632203713656753 -0.24417837723474986 0 0.3673689903930585 0.3391755075143028 0
          -0.3665246993161162 -0.3400877016171426 0 -0.37037990942596444 0.3358849843229292 0
          0.44070970716155466 -0.23616721621253173 0 0.47162593275180775 0.1660390904455554 0
          -0.4961978413053686 0.06154431154779667 0 -0.1645157584423357 -0.47215947012015236 0
          0.27212336335211107 0.41946260276445974 0 -0.4991433023366047 -0.029256857871426428 0
          -0.4994250146697769 0.0239719569933936 0 0.04636757927767732 0.49784540531366595 0
          0.4332316370376648 -0.24962040916091985 0 -0.2761001840812719 0.41685571646588676 0
          0.2719833695577104 0.41955338955135846 0 -0.2994130013440864 -0.40043957674801095 0
          -0.414631122685542 -0.27942983394857296 0 0.4032442421995906 0.2956248993790576 0
          -0.30302245643809067 0.3977152133049796 0 0.3901984767751704 -0.31264220559984673 0
          0.1524732883817951 -0.4761847292071029 0 -0.49444544283208036 0.07432162580694755 0
          0.11159073395923969 0.4873884570796052 0 -0.4267277709866467 0.2605828265039121 0
          0.30568688570708025 -0.39567098441344734 0 -0.4064620690392266 0.2911847977356493 0
          -0.23965268864078687 -0.438824097819664 0 -0.37822408558216863 0.32702682013182405 0
          0.42921889903349736 -0.25645884019170095 0 0.4547992118039133 -0.20774425850679776 0
          0.4771737560004634 -0.14934927714726376 0 0.2681515039587222 0.4220127615661349 0
          -0.21275121483817994 0.4524786410261578 0 -0.4945141278194231 0.07386323433884599 0
          -0.42186383931453736 -0.26838573188379106 0 0.1348783728013219 0.48146425054251707 0
          -0.10152346983538299 -0.4895845024840799 0 0.4472054320353393 -0.22362312393418868 0
          -0.4154689878390126 -0.2781825302639014 0 -0.33103945887878 -0.37471706214855566 0
          -0.45180078845628824 -0.21418694533112018 0 0.3808971889210266 -0.3239094494948546 0
          0.3387062632033703 -0.3678016683850268 0 -0.4757665134239094 0.15377328995783698 0
          0.49385760648301497 -0.07813235257476601 0 -0.38803521497104493 -0.315323123069614 0
          -0.40396235063662733 0.29464286732946815 0 0.4926384925548625 0.08548283835526692 0
          -0.1505240274936649 0.4768044852422074 0 0.03222473451269266 0.4989604858960141 0
          0.04474539802396274 0.49799382461600583 0 0.0010825264063757504 0.49999882813520624 0
          0.1308857048880633 -0.4825649513339679 0 -0.47755348288570904 0.14813058760340075 0
          -0.46088277767675623 -0.19387383846449646 0 0.2698651940466193 -0.4209189673110259 0
          -0.13411437163965687 0.4816776259280682 0 0.13311739485396848 -0.4819541048557348 0
          -0.15227475948448502 0.4762482520954195 0 0.44689482411510256 -0.22424320765439373 0
          -0.3840686456768038 -0.32014258605812773 0 -0.4949346634448919 -0.07099069601498194 0
          -0.49706725674245567 0.054075338875772795 0 0.10545847834199357 0.4887519916540405 0
          -0.49145699951676075 -0.09203269867814723 0 -0.0001559295532165135 -0.4999999756859738 0
          0.4999604093691032 -0.006291984065362705 0 0.0838455702925402 0.4929197909825885 0
          0.19638507614672726 -0.4598183357227549 0 -0.2986573146133181 -0.40100350176521093 0
          -0.42753920874563106 -0.25924934905445707 0 0.015926296853799208 -0.4997462886991005 0
          0.17268015876279952 0.46923508262879743 0 0.44507147470281233 0.2278406952365268 0
          -0.4935027650275181 0.08034314476166751 0 0.49919647371823483 0.0283351482664146 0
          -0.48424571570749775 -0.1245234388335517 0 0.45964409155491814 -0.1967925534634226 0
          -0.3014393658929802 0.39891641817558476 0 0.32886951231176165 -0.3766229465550712 0
          -0.30389990823449087 -0.39704514324578766 0 0.499820422395275 0.013399453593667407 0
          -0.32557135099780765 0.3794776612785822 0 -0.4908565131324032 0.09518342038138196 0
          0.4514911673692813 0.21483883677660237 0 0.3386245930748039 -0.36787686114367596 0
          -0.07101127771371885 -0.4949317108828905 0 -0.4982744898008649 -0.04150340725395651 0
          0.3303611976288172 0.3753151730229589 0 0.14744353205403318 -0.4777660566170762 0
          0.09631869877130016 -0.4906350051382428 0 0.498305141466041 0.04113375728655055 0
          -0.02930591652218064 -0.49914042438655976 0 -0.15715159578881677 -0.47466132762321006 0
          -0.36591126839723587 -0.34074762458442176 0 -0.4008383378492357 -0.2988789502629149 0
          -0.4551695826178769 0.2069315129685852 0 0.1866975749785578 -0.4638361946820513 0
          0.4936928260332469 0.0791668713750029 0 -0.05801795475843091 -0.4966225094834593 0
          0.45446275840449557 -0.20847925849680368 0 -0.11301135323067427 0.48706101675351904 0
          0.29566427536974105 -0.4032153720657063 0 -0.22746303074578797 -0.44526460632296017 0
          -0.49520254484910753 0.06909731959322059 0 0.4089343169353722 -0.28770249292037875 0
          -0.0869161230751247 0.49238763951747383 0 -0.39247281808394796 0.3097823220670351 0
          0.3393771913958077 0.3671826819994284 0 0.43441634049520234 0.24755290971983426 0
          0.46990486812265003 0.17084909983560023 0 -0.46792963485470207 0.17618699391483242 0
          -0.4214311959202163 0.26906457794599475 0 -0.4916069435606817 0.09122835657253035 0
          0.44364622068215076 0.23060362285628647 0 0.4060237329294901 0.29179569616086193 0
          -0.35215322117956804 -0.3549480367784195 0 0.18331414187639897 0.4651837544327182 0
          0.1428085113161944 -0.47917192018695376 0 0.4992379566145449 0.027594613157893758 0
          -0.46587328139987083 0.1815546355170167 0 0.4308562951848205 0.25369835021066023 0
          0.44500397538862213 -0.2279725024829148 0 -0.42167757314302434 -0.2686782914718071 0
          -0.015301400879405676 0.4997658122872429 0 -0.498099470582505 -0.043553615296876 0
          -0.335962030982095 0.3703100238157021 0 0.36715573544512403 0.3394063433846664 0
          0.002059054368966616 -0.4999957602771304 0 0.26732910499639023 0.4225341993517554 0
          0.19857695349648782 0.45887601107494574 0 -0.06288070298710981 -0.4960302583430237 0
          <InformationKey name="L2_NORM_RANGE" location="vtkDataArray" length="2">
            <Value index="0">
              0.5
            </Value>
            <Value index="1">
              0.5
            </Value>
          </InformationKey>
        </DataArray>
        <DataArray type="Float64" Name="radius" format="ascii" RangeMin="1" RangeMax="1">
          1 1 1 1 1 1
          1 1 1 1 1 1
          1 1 1 1 1 1
          1 1 1 1 1 1
          1 1 1 1 1 1
          1 1 1 1 1 1
          1 1 1 1 1 1
          1 1 1 1 1 1
          1 1 1 1 1 1
          1 1 1 1 1 1
          1 1 1 1 1 1
          1 1 1 1 1 1
          1 1 1 1 1 1
          1 1 1 1 1 1
          1 1 1 1 1 1
          1 1 1 1 1 1
          1 1 1 1 1 1
          1 1 1 1 1 1
          1 1 1 1 1 1
          1 1 1 1 1 1
          1 1 1 1 1 1
          1 1 1 1 1 1
          1 1 1 1 1 1
          1 1 1 1 1 1
          1 1 1 1 1 1
          1 1 1 1
        </DataArray>
      </PointData>
      <CellData>
      </CellData>
      <Points>
        <DataArray type="Float32" Name="Points" NumberOfComponents="3" format="ascii" RangeMin="2.6292838083085464" RangeMax="67.53632662768925">
          -37.030052185058594 33.68864059448242 0 47.06526565551758 -27.824310302734375 0
          -18.954280853271484 4.375495910644531 0 -31.1953067779541 49.2470817565918 0
          48.79152297973633 46.69628143310547 0 22.63798713684082 48.695030212402344 0
          -39.31144332885742 29.51499366760254 0 -20.277965545654297 -50.028770446777344 0
          -38.7302131652832 13.768948554992676 0 37.45459747314453 0.49933579564094543 0
          29.954740524291992 -13.357501983642578 0 -28.533288955688477 18.13195037841797 0
          -10.675137519836426 23.998443603515625 0 -3.077563762664795 -7.697204113006592 0
          -32.51036071777344 -19.680118560791016 0 29.4232234954834 -18.974958419799805 0
          37.11460876464844 -35.52201461791992 0 49.128597259521484 31.733232498168945 0
          -37.35093688964844 26.315839767456055 0 -1.5294378995895386 15.597092628479004 0
          -38.156002044677734 -29.33384132385254 0 -45.03556823730469 -46.053184509277344 0
          -8.832807540893555 -4.318042278289795 0 -1.1407073736190796 29.724214553833008 0
          41.81031036376953 30.70602035522461 0 21.250579833984375 -49.45629119873047 0
          20.51232147216797 14.504133224487305 0 -4.343258857727051 27.070293426513672 0
          7.783831596374512 37.74610900878906 0 30.680328369140625 -47.52476119995117 0
          32.70111083984375 32.1889533996582 0 43.7227668762207 -8.935897827148438 0
          -7.950135231018066 7.806556224822998 0 -34.13881301879883 26.57671356201172 0
          -26.43600845336914 31.02083396911621 0 49.37508010864258 -17.12445831298828 0
          -20.524526596069336 -48.7352294921875 0 -29.197925567626953 40.46392822265625 0
          34.845726013183594 45.77853012084961 0 27.780813217163086 49.1938591003418 0
          -43.163536071777344 29.64713478088379 0 8.933046340942383 23.704526901245117 0
          19.339435577392578 18.13385009765625 0 -10.695037841796875 5.783818244934082 0
          -29.320945739746094 2.2866122722625732 0 -9.638432502746582 -14.775931358337402 0
          9.56417465209961 -13.94190502166748 0 46.901336669921875 -34.677757263183594 0
          -10.535300254821777 -11.1884765625 0 22.312744140625 -11.431146621704102 0
          42.74613952636719 -6.057427406311035 0 35.46684646606445 11.994847297668457 0
          -37.34468460083008 -2.42291522026062 0 -15.61617374420166 3.074598550796509 0
          21.53899383544922 48.70424270629883 0 21.926267623901367 41.727943420410156 0
          0.3884999752044678 5.934688091278076 0 0.2245125025510788 -4.089898586273193 0
          4.801314353942871 -5.4722113609313965 0 35.34207534790039 10.748055458068848 0
          0.6215330362319946 47.41508483886719 0 -47.181304931640625 47.78461456298828 0
          -13.361907005310059 17.933027267456055 0 -14.845728874206543 35.289329528808594 0
          -45.52326202392578 15.83612060546875 0 24.781774520874023 -35.948524475097656 0
          48.3452033996582 -40.17491912841797 0 -22.405309677124023 30.22357749938965 0
          -42.43220901489258 12.706230163574219 0 -49.519493103027344 18.71576690673828 0
          3.257634401321411 -5.90439510345459 0 -29.634244918823242 -36.06610870361328 0
          -11.369312286376953 26.900033950805664 0 -46.10540008544922 -24.809772491455078 0
          1.265493631362915 32.78203201293945 0 47.9423713684082 32.242984771728516 0
          -19.343109130859375 -44.34560775756836 0 -24.305130004882812 3.6499507427215576 0
          38.94321823120117 -15.44350814819336 0 -47.028934478759766 -33.64624786376953 0
          38.061981201171875 -29.48938751220703 0 -23.194252014160156 -0.815066397190094 0
          -27.454931259155273 -0.3784302771091461 0 44.847232818603516 15.101401329040527 0
          26.513853073120117 -6.535447120666504 0 4.678879261016846 -44.6387939453125 0
          -17.06724739074707 -9.384391784667969 0 40.63829040527344 31.455759048461914 0
          -24.386417388916016 -36.51143264770508 0 -1.0649890899658203 -11.597980499267578 0
          21.242435455322266 -20.961458206176758 0 12.078811645507812 31.19597625732422 0
          -18.82767677307129 -12.085403442382812 0 -15.290070533752441 31.368453979492188 0
          17.237640380859375 -12.060332298278809 0 -4.217029094696045 -19.36073112487793 0
          40.605316162109375 -1.3082605600357056 0 25.676212310791016 -39.01198959350586 0
          -10.868032455444336 37.23407745361328 0 -13.325264930725098 41.967586517333984 0
          5.2423906326293945 -36.18425750732422 0 -30.113807678222656 45.041683197021484 0
          49.79939270019531 -26.55660057067871 0 -48.23268127441406 -11.363245010375977 0
          28.119836807250977 -2.6693201065063477 0 4.081432342529297 -48.145511627197266 0
          39.97789001464844 -29.98151969909668 0 38.3615608215332 -5.4329705238342285 0
          -34.94532012939453 -25.851900100708008 0 29.4608154296875 -2.8674161434173584 0
          -40.89045333862305 14.37523365020752 0 13.709256172180176 8.14666748046875 0
          22.728843688964844 -14.401432037353516 0 18.5685977935791 21.130672454833984 0
          -33.623374938964844 -36.306312561035156 0 -4.823681831359863 -46.09789276123047 0
          29.827932357788086 -32.89269256591797 0 33.197265625 -16.918874740600586 0
          15.691887855529785 -7.780381679534912 0 27.978893280029297 -38.80849075317383 0