<?xml version="1.0"?>
<VTKFile type="PolyData" version="0.1" byte_order="LittleEndian" header_type="UInt32" compressor="vtkZLibDataCompressor">
  <PolyData>
    <Piece NumberOfPoints="154" NumberOfVerts="0" NumberOfLines="0" NumberOfStrips="0" NumberOfPolys="0">
      <PointData>
        <DataArray type="Int32" Name="id" format="ascii" RangeMin="0" RangeMax="153">
          0 1 2 3 4 5
          6 7 8 9 10 11
          12 13 14 15 16 17
          18 19 20 21 22 23
          24 25 26 27 28 29
          30 31 32 33 34 35
          36 37 38 39 40 41
          42 43 44 45 46 47
          48 49 50 51 52 53
          54 55 56 57 58 59
          60 61 62 63 64 65
          66 67 68 69 70 71
          72 73 74 75 76 77
          78 79 80 81 82 83
          84 85 86 87 88 89
          90 91 92 93 94 95
          96 97 98 99 100 101
          102 103 104 105 106 107
          108 109 110 111 112 113
          114 115 116 117 118 119
          120 121 122 123 124 125
          126 127 128 129 130 131
          132 133 134 135 136 137
          138 139 140 141 142 143
          144 145 146 147 148 149
          150 151 152 153
        </DataArray>
        <DataArray type="Float64" Name="director" NumberOfComponents="3" format="ascii" RangeMin="0.9999999999999999" RangeMax="1">
          -0.889641049485808 -0.4566604899373167 0 0.09752050313034617 -0.9952335160499791 0
          -0.6442151690883277 -0.7648443082853513 0 -0.22976470759716414 0.973246206847368 0
          -0.8306491872777672 0.5567961275680579 0 0.5008581620939158 0.8655293764303468 0
          0.965241934220717 -0.261358008145626 0 0.87797381256891 0.4787086634302877 0
          0.9774761988910505 -0.21104568368365992 0 -0.4459502188548935 -0.8950577647857554 0
          -0.8607053704276539 0.5091033935429963 0 -0.9888284445385175 -0.14905806677780334 0
          0.07163815252542723 -0.9974306868663825 0 -0.542176863909933 0.8402643918676965 0
          0.844174265470399 0.5360688477402062 0 0.9953828645787696 0.09598412839091112 0
          -0.7550393337593616 -0.6556794982887747 0 -0.9570178070080722 0.2900291658945018 0
          0.966022525287073 -0.25845788948682996 0 -0.8751365005401751 -0.483876126113178 0
          0.8465822339038357 0.5322579461486613 0 0.4827538233057887 -0.8757560996554026 0
          -0.8388806576470664 -0.5443153885622061 0 0.6040087705001018 0.7969776691720761 0
          -0.7870686694601658 -0.616865390141321 0 -0.6745989741630213 0.7381844106036102 0
          0.8616510128932195 -0.5075012630329986 0 0.9152393146702827 0.4029106562029243 0
          -0.9548615588947236 0.2970511796730294 0 -0.44368540490288766 -0.8961826049841408 0
          0.5246808544733459 0.8512990079573215 0 -0.9997694943660647 -0.021469935608274468 0
          -0.9934502785690275 0.11426523535669825 0 0.08410790486234294 0.9964566525141307 0
          0.9199174743326473 -0.39211202534153855 0 -0.569400629921892 0.8220601697227232 0
          0.6495399080296377 0.7603275004081135 0 -0.6679662721092348 -0.7441915474691255 0
          -0.8312498460692519 -0.5558989956906246 0 0.8654776805640151 0.5009474867144587 0
          -0.5293724572163621 0.8483895340824938 0 0.6969495282773817 -0.717120181722656 0
          0.12478286144722546 -0.9921840743980134 0 -0.9845292959252451 0.17522004869575053 0
          0.07138685416690316 0.9974487039703612 0 -0.8612039828349359 0.5082594809241077 0
          0.5462021432844905 -0.8376534000834885 0 -0.8406714797837016 0.5415454395323456 0
          -0.5857638907890254 -0.8104817482508183 0 -0.8080313003605586 0.589139557013128 0
          0.8352214428250093 -0.5499137581887815 0 0.927358708314627 -0.3741735240674128 0
          0.977220102883737 -0.21222834523196585 0 0.5557220051506332 0.8313681813681347 0
          -0.3634439607137722 0.9316160622384556 0 -0.9752787197360647 0.2209783220815619 0
          -0.8754811623644656 -0.48325224711838033 0 0.27735233568859374 0.9607682768951531 0
          -0.08423776907861184 -0.9964456825440403 0 0.8072580687158761 -0.5901986195283024 0
          -0.8384707979167281 -0.5449465304421025 0 -0.5551137696258861 -0.8317744302223642 0
          -0.9182926143845951 -0.3959023545859577 0 0.7595032940012525 -0.6505034561024615 0
          0.5958517721303354 -0.8030944313398884 0 -0.9229223348428837 0.3849861865679859 0
          0.9962592724913502 -0.08641447780902016 0 -0.7781472928035329 -0.628081834399414 0
          -0.7483549986532293 0.6632984215198504 0 0.9875010042936035 0.15761271052527576 0
          -0.313237014587414 0.949674982661102 0 0.02305037683612199 0.999734304766878 0
          0.15450319190182168 0.9879922892878005 0 -0.1243186425255393 0.992242346970037 0
          0.32743913302524563 -0.9448722739945731 0 -0.924188228309644 0.38193732293909344 0
          -0.9160536720525932 -0.40105569428566906 0 0.52735761078292 -0.8496434254140558 0
          -0.16492245235253544 0.986306536889027 0 0.21993345643660944 -0.9755148767393791 0
          -0.332106090982033 0.9432420391037677 0 0.935619302172306 -0.353010653384012 0
          -0.7933850111739624 -0.6087201524875708 0 -0.9868933637254719 -0.1613737544789222 0
          -0.9890171143568247 0.14780104028490296 0 0.17557110206690943 0.9844667531811376 0
          -0.9817941359096924 -0.18994808420550144 0 0.14594177968594366 -0.9892931804789212 0
          0.9757559889850381 -0.2188612573294556 0 0.16745070436407714 0.9858804499572829 0
          0.5504893705097396 -0.8348421724827937 0 -0.5674564700008282 -0.8234033972811863 0
          -0.8419085075524221 -0.5396202969782115 0 0.07099034540311246 -0.9974770026720149 0
          0.4847329145464101 0.8746622214062653 0 0.9137232626493498 0.4063370513421431 0
          -0.9692348467513541 0.24613779035913833 0 0.9999801115657975 0.00630685919101224 0
          -0.9819915249140053 -0.18892497187261 0 0.9503746212796718 -0.311107825725295 0
          -0.5704660653138676 0.8213211724564966 0 0.7144286478510182 -0.6997083014583761 0
          -0.6865868243112384 -0.7270478200794007 0 0.9839935798134518 0.17820391377831207 0
          -0.6594439796341713 0.7517537081546367 0 -0.9542973830040994 0.2988586702632657 0
          0.9464985346950129 0.32270810931892224 0 0.6700308982070154 -0.7423332105246943 0
          -0.2049489287074252 -0.9787726685097407 0 -0.976002890873004 -0.21775756475387767 0
          0.5938315934329363 0.8045893602583245 0 0.40333293112607754 -0.9150533026382927 0
          0.10259510875726338 -0.9947231995178786 0 0.9998754691329984 0.015781198499049645 0
          -0.00474705292343719 -0.9999887326807948 0 -0.2841645490391158 -0.9587755259023856 0
          -0.818617885156861 -0.5743385396273772 0 -0.8286828597973314 -0.5597184273169112 0
          -0.8833371643221603 0.468738150919343 0 0.433908464727811 -0.9009569602581213 0
          0.9821533304620754 0.18808199132892336 0 -0.3075381691497727 -0.9515357452644676 0
          0.9485908486580205 -0.31650497917450937 0 0.013100724618108149 0.9999141818248607 0
          0.5435844962756936 -0.8393544515928301 0 -0.427967273617687 -0.903794231400181 0
          -0.9871702017802135 0.15967151504639907 0 0.8446145220249798 -0.5353749239407044 0
          -0.24361261165392045 0.9698726181531038 0 -0.7433839085031562 0.6688649823234665 0
          0.6809029377507982 0.73237366785155 0 0.8333201478689803 0.5527906757133487 0
          0.9658374971776601 0.25914846911682404 0 -0.8815716524849279 0.4720502320039611 0
          -0.786869481998197 0.617119452213175 0 -0.9783198247829142 0.20709978376794105 0
          0.8860443829216593 0.4636004222312312 0 0.8589009613227405 0.5121417173389337 0
          -0.6852118471211865 -0.7283438230429168 0 0.3887983904979296 0.9213228595591338 0
          0.25270898441599865 -0.9675423345753066 0 0.9982167003292524 -0.05969438150931506 0
          -0.8586945597194496 0.5124877102021282 0 0.9302575558782067 0.36690718135722716 0
          0.8230166023351962 -0.5680173168844673 0 -0.7289470410304499 -0.6845700923740035 0
          0.15786418693185847 0.9874608338989164 0 -0.9723723521612911 -0.2334352345990595 0
          -0.6947438939075589 0.7192572014781379 0 0.7071250140924572 0.7070885478104861 0
          -0.06002833275494108 -0.9981966736403514 0 0.5021019398546428 0.8648084423698722 0
          0.5013389687139256 0.8652509684761165 0 -0.01217048889234937 -0.9999259368573861 0
          <InformationKey name="L2_NORM_RANGE" location="vtkDataArray" length="2">
            <Value index="0">
              1
            </Value>
            <Value index="1">
              1
            </Value>
          </InformationKey>
        </DataArray>
        <DataArray type="Float64" Name="velocity" NumberOfComponents="3" format="ascii" RangeMin="2.98391528750295" RangeMax="65.61664053985334">
          20.472372037415383 -30.489259884928693 0 -7.778161120144524 43.605506408926914 0
          -35.778279556590725 14.318100471258902 0 -2.7267860528004704 -6.306708942777526 0
          -25.56803597993237 0.5919415230237348 0 40.69440930810454 -42.34960265147567 0
          21.390392053252754 11.720491675449018 0 -31.091580543867785 -10.301819378431787 0
          -22.233594277397 35.80993014386058 0 40.8936574712134 11.727908496204755 0
          -31.918129728714472 1.502371966558826 0 32.46317064138093 -14.067556233339687 0
          31.61170207931397 -20.66117562390716 0 -32.788218903188394 -0.7210412736466054 0
          -30.467523066969363 36.43074923190564 0 -29.58028331655805 11.627227611362315 0
          37.80505508071815 -10.753091333426255 0 44.65772551607054 -33.330173144632525 0
          47.18774005931614 6.396489460552942 0 9.836891189866492 -36.87781496106794 0
          6.677739541459459 5.438027088135769 0 -18.951003944933063 -37.93510690561732 0
          23.77908201111339 -25.727634747998636 0 32.285914726045576 -31.45240287607238 0
          -18.732306147503376 38.172541468590836 0 17.42129460906331 23.929755673071398 0
          -43.74567596165927 -36.843843838172035 0 -41.00470913383489 -49.1685554695042 0
          -4.3489588147394045 13.430332075080756 0 2.9762992276979077 -0.21305715242312573 0
          -16.420210149222868 -24.717665071237764 0 -26.63245586108499 -32.68369682188443 0
          9.59810303037343 22.68931438280859 0 37.757309281314306 20.71597266757422 0
          -26.523439665569285 -2.200425364398683 0 -48.17882370239545 24.733119867345934 0
          15.472358145094617 -42.19330576503555 0 -2.7230899171649696 49.647506705142575 0
          3.209752212846098 39.943600631846664 0 27.290092728339346 -29.624030405099575 0
          40.710862227344634 -12.518743865476708 0 34.808888796398136 -17.330075407408792 0
          -17.326333983387784 15.921061981020685 0 8.676498234140595 -45.101679767889145 0
          26.99656655139428 -0.8247828969564566 0 -1.181598492863479 -7.087342925864128 0
          -10.527228461045638 27.645380145270124 0 47.47543864880045 24.850515939083976 0
          13.45020038299144 -42.781974126121774 0 13.33632968921519 2.89206325620421 0
          -20.383234879262602 -17.467213088655853 0 13.111992425538233 49.45054225750374 0
          1.6047826830209004 22.445391370448775 0 -25.442525168919026 -16.766088433362327 0
          24.860911549332883 18.296648546241826 0 18.127137052491975 -42.11576276898946 0
          -4.106371249565804 19.81468592825003 0 -43.2115168522386 -43.085994704941484 0
          2.7042817825837204 -23.795120132132308 0 -1.6624837545658195 -36.91945356486498 0
          -40.55592314206473 -37.96183180819797 0 46.98372058379586 25.62816454897687 0
          -23.182362140209666 22.4905983535036 0 -8.42374893276238 -2.5281598168396826 0
          -44.45585735866184 11.374414308737222 0 -0.9380815156004232 40.44748670579848 0
          43.5214270198436 41.82766196839604 0 -19.617472876146607 29.010177679462174 0
          -27.377259211045168 -5.104813753149479 0 1.0108912986547693 -26.93680745999526 0
          21.18807799653547 48.4452609761332 0 15.521324819791857 -22.733301715898534 0
          -3.0984436752635744 -49.699879474370995 0 -5.357606698271908 47.09441502974741 0
          -19.533649987483585 -28.48909553641595 0 -25.241492794096537 30.645102659141713 0
          -1.3628901407151872 -9.249808436218693 0 -28.437070584076316 4.0252086974848424 0
          22.302423751473526 -21.630608392707323 0 4.286209731170565 25.592468486596516 0
          -16.80227135673981 30.176297340482108 0 35.70724318896097 -48.51082997011254 0
          38.494266527440914 9.308694076898924 0 -41.37827709570729 42.48759424258512 0
          41.371957205314274 48.07567751376408 0 40.00221093710812 44.971458396046486 0
          43.45219546574209 -49.16757290067578 0 27.77940311086799 -47.40411222574361 0
          8.787704962513757 14.978077069606684 0 -17.176354508003442 -38.89206379839693 0
          -37.572734230027905 47.39150589914381 0 3.322947059262674 16.230028184641725 0
          20.82576325094061 -43.12614201683975 0 -29.404442159877867 -6.6570323329381935 0
          -48.88074135310182 -43.07374742736768 0 -15.693819004659524 -18.776991949103287 0
          49.2742614956165 -23.093566379026992 0 35.70662412955289 -14.438908494432013 0
          24.676827977366614 34.48562696853686 0 -28.28613766609157 46.49521791482232 0
          21.219265309149932 48.266786794162286 0 25.989900495501132 -30.673962513745963 0
          -14.741048879365302 -30.369965831724773 0 33.206792723445574 45.25947670903301 0
          26.73700517552618 36.1968809297727 0 -4.433626259916984 -16.731616061562868 0
          33.82599634129042 5.430878965379037 0 -37.91344272052366 -28.781627030961573 0
          -0.8760744559602713 -9.034520229977083 0 25.951148963832622 -14.29357740625877 0
          27.17860558051683 48.15404052238152 0 34.61617221348607 33.462162550860555 0
          -13.28055184508198 -44.93740558320786 0 47.55616001461492 34.25892934866374 0
          36.946038841117556 -42.45015674570037 0 -46.76239316488481 11.393180618063838 0
          23.568028568935404 11.552780427737098 0 16.263007945057282 45.12644264060411 0
          -23.411248530157515 41.93857265065735 0 -38.160345232049345 -18.69342940760771 0
          37.21153998486223 -26.635630373860984 0 30.80584946405935 5.653176675427417 0
          44.35923105765637 0.370346282237378 0 16.64168251311186 -34.7034267378138 0
          47.322877480901255 13.376690736606477 0 -32.1350217035443 -42.58571958176201 0
          -0.5025219679409361 28.59799073613067 0 -3.5320261053794297 38.30316610148137 0
          14.736889949280638 40.32409694969634 0 -49.402638529229115 19.356180838194604 0
          8.508964450503598 -39.46387075781778 0 49.03198966734128 -27.000797471280585 0
          -16.70921662991016 18.938285128010065 0 46.14207459237997 -27.3400906744995 0
          42.424140585792586 37.62461911345025 0 -6.825547086494495 -2.911259141055119 0
          6.210247997996007 33.76154121673389 0 -35.16911208657487 13.927818279591207 0
          49.5593687100304 13.93941034113417 0 -6.0481675260535965 -47.161165000275155 0
          -41.68490984500472 3.0367185203014984 0 28.200151364646487 23.664522522360798 0
          -30.983903256438072 -23.817273645282434 0 -4.775523168997552 -3.9973115200368454 0
          17.36371431475763 -32.304692769073746 0 -31.21691646176371 -40.35131875297581 0
          -17.61253928181918 -32.96735050248542 0 -47.52659271635095 33.064298464373394 0
          -25.51716157275273 -35.79649925661745 0 -34.4558032257712 -19.698927528483058 0
          -46.64276824331557 -9.071061809886274 0 28.312364537561464 -5.662808823633235 0
          -48.25117889494449 -21.421563451189467 0 45.139670111270334 -32.86849758057289 0
          <InformationKey name="L2_NORM_RANGE" location="vtkDataArray" length="2">
            <Value index="0">
              2.9839152875
            </Value>
            <Value index="1">
              65.61664054
            </Value>
          </InformationKey>
        </DataArray>
        <DataArray type="Float64" Name="force" NumberOfComponents="3" format="ascii" RangeMin="0.49999999999999994" RangeMax="0.5">
          -0.444820524742904 -0.22833024496865836 0 0.048760251565173086 -0.49761675802498956 0
          -0.3221075845441638 -0.38242215414267566 0 -0.11488235379858207 0.486623103423684 0
          -0.4153245936388836 0.2783980637840289 0 0.2504290810469579 0.4327646882151734 0
          0.4826209671103585 -0.130679004072813 0 0.438986906284455 0.23935433171514384 0
          0.48873809944552526 -0.10552284184182996 0 -0.22297510942744675 -0.4475288823928777 0
          -0.43035268521382697 0.25455169677149814 0 -0.49441422226925874 -0.07452903338890167 0
          0.03581907626271361 -0.49871534343319124 0 -0.2710884319549665 0.42013219593384826 0
          0.4220871327351995 0.2680344238701031 0 0.4976914322893848 0.04799206419545556 0
          -0.3775196668796808 -0.32783974914438735 0 -0.4785089035040361 0.1450145829472509 0
          0.4830112626435365 -0.12922894474341498 0 -0.43756825027008756 -0.241938063056589 0
          0.42329111695191785 0.26612897307433064 0 0.24137691165289435 -0.4378780498277013 0
          -0.4194403288235332 -0.27215769428110304 0 0.3020043852500509 0.39848883458603807 0
          -0.3935343347300829 -0.3084326950706605 0 -0.33729948708151064 0.3690922053018051 0
          0.4308255064466098 -0.2537506315164993 0 0.45761965733514137 0.20145532810146216 0
          -0.4774307794473618 0.1485255898365147 0 -0.22184270245144383 -0.4480913024920704 0
          0.26234042723667295 0.42564950397866075 0 -0.49988474718303233 -0.010734967804137234 0
          -0.49672513928451373 0.057132617678349124 0 0.04205395243117147 0.49822832625706537 0
          0.45995873716632363 -0.19605601267076928 0 -0.284700314960946 0.4110300848613616 0
          0.32476995401481884 0.38016375020405674 0 -0.3339831360546174 -0.37209577373456276 0
          -0.41562492303462595 -0.2779494978453123 0 0.43273884028200754 0.25047374335722933 0
          -0.26468622860818103 0.4241947670412469 0 0.34847476413869083 -0.358560090861328 0
          0.06239143072361273 -0.4960920371990067 0 -0.49226464796262254 0.08761002434787526 0
          0.03569342708345158 0.4987243519851806 0 -0.43060199141746797 0.25412974046205383 0
          0.27310107164224523 -0.41882670004174427 0 -0.4203357398918508 0.2707727197661728 0
          -0.2928819453945127 -0.40524087412540916 0 -0.4040156501802793 0.294569778506564 0
          0.41761072141250466 -0.27495687909439076 0 0.4636793541573135 -0.1870867620337064 0
          0.4886100514418685 -0.10611417261598292 0 0.2778610025753166 0.41568409068406736 0
          -0.1817219803568861 0.4658080311192278 0 -0.48763935986803236 0.11048916104078095 0
          -0.4377405811822328 -0.24162612355919016 0 0.13867616784429687 0.48038413844757655 0
          -0.04211888453930592 -0.49822284127202016 0 0.40362903435793807 -0.2950993097641512 0
          -0.41923539895836404 -0.27247326522105125 0 -0.27755688481294305 -0.4158872151111821 0
          -0.45914630719229754 -0.19795117729297884 0 0.37975164700062625 -0.32525172805123076 0
          0.2979258860651677 -0.4015472156699442 0 -0.46146116742144183 0.19249309328399294 0
          0.4981296362456751 -0.04320723890451008 0 -0.38907364640176645 -0.314040917199707 0
          -0.37417749932661465 0.3316492107599252 0 0.4937505021468018 0.07880635526263788 0
          -0.156618507293707 0.474837491330551 0 0.011525188418060994 0.499867152383439 0
          0.07725159595091084 0.49399614464390024 0 -0.06215932126276965 0.4961211734850185 0
          0.16371956651262282 -0.47243613699728654 0 -0.462094114154822 0.19096866146954672 0
          -0.4580268360262966 -0.20052784714283453 0 0.26367880539146 -0.4248217127070279 0
          -0.08246122617626772 0.4931532684445135 0 0.10996672821830472 -0.48775743836968954 0
          -0.1660530454910165 0.47162101955188385 0 0.467809651086153 -0.176505326692006 0
          -0.3966925055869812 -0.3043600762437854 0 -0.49344668186273594 -0.0806868772394611 0
          -0.49450855717841236 0.07390052014245148 0 0.08778555103345471 0.4922333765905688 0
          -0.4908970679548462 -0.09497404210275072 0 0.07297088984297183 -0.4946465902394606 0
          0.48787799449251906 -0.1094306286647278 0 0.08372535218203857 0.49294022497864143 0
          0.2752446852548698 -0.41742108624139684 0 -0.2837282350004141 -0.41170169864059314 0
          -0.42095425377621104 -0.26981014848910573 0 0.03549517270155623 -0.49873850133600744 0
          0.24236645727320505 0.43733111070313263 0 0.4568616313246749 0.20316852567107155 0
          -0.48461742337567704 0.12306889517956916 0 0.49999005578289873 0.00315342959550612 0
          -0.49099576245700266 -0.094462485936305 0 0.4751873106398359 -0.1555539128626475 0
          -0.2852330326569338 0.4106605862282483 0 0.3572143239255091 -0.3498541507291881 0
          -0.3432934121556192 -0.36352391003970036 0 0.4919967899067259 0.08910195688915604 0
          -0.32972198981708567 0.37587685407731836 0 -0.4771486915020497 0.14942933513163284 0
          0.47324926734750644 0.16135405465946112 0 0.3350154491035077 -0.3711666052623471 0
          -0.1024744643537126 -0.4893863342548703 0 -0.488001445436502 -0.10887878237693883 0
          0.29691579671646817 0.40229468012916225 0 0.20166646556303877 -0.4575266513191463 0
          0.05129755437863169 -0.4973615997589393 0 0.4999377345664992 0.007890599249524823 0
          -0.002373526461718595 -0.4999943663403974 0 -0.1420822745195579 -0.4793877629511928 0
          -0.4093089425784305 -0.2871692698136886 0 -0.4143414298986657 -0.2798592136584556 0
          -0.4416685821610801 0.2343690754596715 0 0.2169542323639055 -0.45047848012906067 0
          0.4910766652310377 0.09404099566446168 0 -0.15376908457488636 -0.4757678726322338 0
          0.47429542432901023 -0.15825248958725469 0 0.0065503623090540745 0.49995709091243035 0
          0.2717922481378468 -0.41967722579641503 0 -0.2139836368088435 -0.4518971157000905 0
          -0.49358510089010676 0.07983575752319953 0 0.4223072610124899 -0.2676874619703522 0
          -0.12180630582696023 0.4849363090765519 0 -0.3716919542515781 0.33443249116173324 0
          0.3404514688753991 0.366186833925775 0 0.41666007393449017 0.27639533785667436 0
          0.48291874858883005 0.12957423455841202 0 -0.44078582624246393 0.23602511600198056 0
          -0.3934347409990985 0.3085597261065875 0 -0.4891599123914571 0.10354989188397053 0
          0.44302219146082966 0.2318002111156156 0 0.42945048066137026 0.2560708586694668 0
          -0.3426059235605933 -0.3641719115214584 0 0.1943991952489648 0.4606614297795669 0
          0.12635449220799932 -0.4837711672876533 0 0.4991083501646262 -0.02984719075465753 0
          -0.4293472798597248 0.2562438551010641 0 0.46512877793910334 0.18345359067861358 0
          0.4115083011675981 -0.28400865844223366 0 -0.36447352051522497 -0.34228504618700173 0
          0.07893209346592923 0.4937304169494582 0 -0.48618617608064557 -0.11671761729952974 0
          -0.34737194695377943 0.35962860073906894 0 0.3535625070462286 0.35354427390524307 0
          -0.03001416637747054 -0.4990983368201757 0 0.2510509699273214 0.4324042211849361 0
          0.2506694843569628 0.43262548423805824 0 -0.006085244446174685 -0.49996296842869303 0
          <InformationKey name="L2_NORM_RANGE" location="vtkDataArray" length="2">
            <Value index="0">
              0.5
            </Value>
            <Value index="1">
              0.5
            </Value>
          </InformationKey>
        </DataArray>
        <DataArray type="Float64" Name="radius" format="ascii" RangeMin="1" RangeMax="1">
          1 1 1 1 1 1
          1 1 1 1 1 1
          1 1 1 1 1 1
          1 1 1 1 1 1
          1 1 1 1 1 1
          1 1 1 1 1 1
          1 1 1 1 1 1
          1 1 1 1 1 1
          1 1 1 1 1 1
          1 1 1 1 1 1
          1 1 1 1 1 1
          1 1 1 1 1 1
          1 1 1 1 1 1
          1 1 1 1 1 1
          1 1 1 1 1 1
          1 1 1 1 1 1
          1 1 1 1 1 1
          1 1 1 1 1 1
          1 1 1 1 1 1
          1 1 1 1 1 1
          1 1 1 1 1 1
          1 1 1 1 1 1
          1 1 1 1 1 1
          1 1 1 1 1 1
          1 1 1 1 1 1
          1 1 1 1
        </DataArray>
      </PointData>
      <CellData>
      </CellData>
      <Points>
        <DataArray type="Float32" Name="Points" NumberOfComponents="3" format="ascii" RangeMin="2.6470882974815426" RangeMax="67.47443760370034">
          -37.23878860473633 33.7253532409668 0 47.07613754272461 -27.79156494140625 0
          -18.96321678161621 4.173680782318115 0 -31.14218521118164 49.28660202026367 0
          48.730918884277344 46.67008972167969 0 22.594449996948242 48.85282897949219 0
          -39.314048767089844 29.600324630737305 0 -20.27788543701172 -50.018409729003906 0
          -38.6831169128418 13.717423439025879 0 37.52873992919922 0.6450493335723877 0
          30.063671112060547 -13.353490829467773 0 -28.4937744140625 18.043792724609375 0
          -10.83049488067627 23.97650146484375 0 -3.1031570434570312 -7.57211971282959 0
          -32.52663040161133 -19.752912521362305 0 29.29866600036621 -18.879161834716797 0
          37.200050354003906 -35.519004821777344 0 49.2371711730957 31.696992874145508 0
          -37.397369384765625 26.230554580688477 0 -1.4647724628448486 15.623663902282715 0
          -38.12305450439453 -29.157493591308594 0 -44.96803665161133 -45.98056411743164 0
          -8.7216796875 -4.304439544677734 0 -1.1281037330627441 29.909507751464844 0
          41.69807052612305 30.61304473876953 0 21.258953094482422 -49.51884841918945 0
          20.415815353393555 14.659905433654785 0 -4.489477157592773 26.959327697753906 0
          7.751950263977051 37.82125473022461 0 30.694252014160156 -47.46382522583008 0
          32.71662902832031 32.46158981323242 0 43.73088455200195 -8.940582275390625 0
          -7.853964328765869 7.852527618408203 0 -34.10124206542969 26.58667755126953 0
          -26.345338821411133 30.89516830444336 0 49.465091705322266 -17.1639347076416 0
          -20.53697967529297 -48.78325271606445 0 -29.080577850341797 40.402183532714844 0
          34.858558654785156 45.64811706542969 0 27.665546417236328 49.26484298706055 0
          -43.11982345581055 29.599462509155273 0 9.131126403808594 23.73308753967285 0
          19.364269256591797 17.960514068603516 0 -10.680872917175293 5.712850093841553 0
          -29.395883560180664 2.271028995513916 0 -9.534693717956543 -14.723190307617188 0
          9.56090259552002 -13.955821990966797 0 46.96276092529297 -34.651973724365234 0
          -10.608078002929688 -11.233154296875 0 22.239952087402344 -11.459726333618164 0
          42.72555160522461 -6.105900764465332 0 35.366188049316406 11.969002723693848 0
          -37.23801040649414 -2.366035223007202 0 -15.794907569885254 3.0580148696899414 0
          21.54159164428711 48.75878143310547 0 21.9312801361084 41.78414535522461 0
          0.3488495647907257 5.879546165466309 0 0.2854517102241516 -3.991069793701172 0
          4.754563808441162 -5.439684867858887 0 35.33338928222656 10.803861618041992 0
          0.5603289604187012 47.4986457824707 0 -47.10382080078125 47.8261604309082 0
          -13.28162670135498 17.90601921081543 0 -14.984356880187988 35.291378021240234 0
          -45.585201263427734 15.723694801330566 0 24.77114486694336 -35.92598342895508 0
          48.30818557739258 -40.05044937133789 0 -22.393329620361328 30.05813217163086 0
          -42.392120361328125 12.753923416137695 0 -49.45138931274414 18.74184226989746 0
          3.109724998474121 -6.044212818145752 0 -29.668060302734375 -35.947227478027344 0
          -11.35851001739502 26.88930892944336 0 -46.243404388427734 -24.77656364440918 0
          1.3701452016830444 32.6252326965332 0 47.85907745361328 32.360599517822266 0
          -19.402328491210938 -44.21700668334961 0 -24.466428756713867 3.6058640480041504 0
          38.990234375 -15.361900329589844 0 -47.07381820678711 -33.637760162353516 0
          38.02842330932617 -29.54535484313965 0 -23.29918670654297 -0.9179955720901489 0
          -27.708133697509766 -0.2638488709926605 0 45.00386428833008 15.11602783203125 0
          26.56190299987793 -6.57142448425293 0 4.67250919342041 -44.502174377441406 0
          -16.96117401123047 -9.482710838317871 0 40.59700012207031 31.528762817382812 0
          -24.476816177368164 -36.46133041381836 0 -1.190251111984253 -11.514564514160156 0
          21.214344024658203 -20.936508178710938 0 12.075529098510742 31.207395553588867 0
          -18.69492530822754 -11.969818115234375 0 -15.230711936950684 31.296594619750977 0
          17.241724014282227 -12.010263442993164 0 -4.143031120300293 -19.30912971496582 0
          40.753387451171875 -1.2916287183761597 0 25.657207489013672 -38.86056900024414 0
          -10.866265296936035 37.5070915222168 0 -13.28271198272705 41.85471725463867 0
          5.157583713531494 -36.210960388183594 0 -30.052927017211914 45.1832275390625 0
          49.74342346191406 -26.65430450439453 0 -48.302757263183594 -11.323734283447266 0
          28.131771087646484 -2.6711924076080322 0 4.062783718109131 -48.290313720703125 0
          40.05814743041992 -29.86142349243164 0 38.322696685791016 -5.555786609649658 0
          -34.88998794555664 -25.890405654907227 0 29.215845108032227 -2.73514986038208 0
          -40.89886474609375 14.421836853027344 0 13.770938873291016 8.125734329223633 0
          22.517131805419922 -14.408608436584473 0 18.34000015258789 21.071983337402344 0
          -33.68864822387695 -36.29470443725586 0 -4.77974796295166 -46.1445198059082 0
          29.771472930908203 -32.98065185546875 0 33.288414001464844 -16.86658477783203 0
          15.62096118927002 -7.899592399597168 0 27.926944732666016 -38.76776123046875 0
          49.4211311340332 -31.723716735839844 0 26.113426208496094 -23.682666778564453 0