<?xml version="1.0"?>
<VTKFile type="PolyData" version="0.1" byte_order="LittleEndian" header_type="UInt32" compressor="vtkZLibDataCompressor">
  <PolyData>
    <Piece NumberOfPoints="154" NumberOfVerts="0" NumberOfLines="0" NumberOfStrips="0" NumberOfPolys="0">
      <PointData>
        <DataArray type="Int32" Name="id" format="ascii" RangeMin="0" RangeMax="153">
          0 1 2 3 4 5
          6 7 8 9 10 11
          12 13 14 15 16 17
          18 19 20 21 22 23
          24 25 26 27 28 29
          30 31 32 33 34 35
          36 37 38 39 40 41
          42 43 44 45 46 47
          48 49 50 51 52 53
          54 55 56 57 58 59
          60 61 62 63 64 65
          66 67 68 69 70 71
          72 73 74 75 76 77
          78 79 80 81 82 83
          84 85 86 87 88 89
          90 91 92 93 94 95
          96 97 98 99 100 101
          102 103 104 105 106 107
          108 109 110 111 112 113
          114 115 116 117 118 119
          120 121 122 123 124 125
          126 127 128 129 130 131
          132 133 134 135 136 137
          138 139 140 141 142 143
          144 145 146 147 148 149
          150 151 152 153
        </DataArray>
        <DataArray type="Float64" Name="director" NumberOfComponents="3" format="ascii" RangeMin="0.9999999999999999" RangeMax="1">
          -0.9178237118567917 -0.3969882037963105 0 0.12083686718411711 -0.9926723787479573 0
          -0.674335992009146 -0.7384246541665853 0 -0.31505571712180425 0.9490731768988446 0
          -0.8415773535168455 0.5401366105417985 0 0.5717247866637928 0.8204454694336734 0
          0.9484021958703587 -0.31706982648666177 0 0.8796000447274737 0.47571394904440867 0
          0.9940767119150942 -0.10868068286533206 0 -0.4477748612027253 -0.8941463379530669 0
          -0.8622956563048146 0.5064051748529521 0 -0.9924114153988527 -0.12296171187018252 0
          0.06280780907436621 -0.998025640511945 0 -0.6144697647934836 0.7889403704682889 0
          0.8508523955618097 0.5254047972437346 0 0.9926044733227609 0.12139340813917507 0
          -0.7895694685287383 -0.6136611885782298 0 -0.9683381924071104 0.24964203397210574 0
          0.9621021724994419 -0.27268921810708646 0 -0.8832159090898037 -0.4689665850896751 0
          0.8263602536706216 0.5631418392851182 0 0.5668071733011874 -0.8238504890417422 0
          -0.8288060034843928 -0.5595360654937522 0 0.6310110303566896 0.7757738585233386 0
          -0.785313445546726 -0.6190983704093636 0 -0.6055828586583774 0.7957822574669202 0
          0.8462960854928581 -0.5327128078800668 0 0.931140854191392 0.3646597176214077 0
          -0.9652174969101313 0.2614482427910746 0 -0.3560567636994509 -0.9344643283849167 0
          0.5173822197252582 0.8557544266389538 0 -0.9983544482340067 -0.05734453497389449 0
          -0.994873020765046 0.10113195614558425 0 0.13059980283485634 0.9914351675724927 0
          0.9203059079480583 -0.3911994833788766 0 -0.5144843929079395 0.8574997431219143 0
          0.7082650106545685 0.7059466514422205 0 -0.6474926444466814 -0.7620716996368803 0
          -0.8442536021273057 -0.5359438919281281 0 0.8907814445611648 0.4544319729349206 0
          -0.531186590724563 0.847254864745205 0 0.729472507881631 -0.6840101316829187 0
          0.16098260623292548 -0.9869572434966243 0 -0.9962669293028116 0.08632615813035258 0
          0.03021230418775919 0.9995435041435997 0 -0.8502631121538854 0.5263579011569878 0
          0.5323415251353181 -0.8465296808834311 0 -0.8730377253572588 0.48765267363465126 0
          -0.606926132773777 -0.7947582458561016 0 -0.8075397103520755 0.5898132045016338 0
          0.8138349085173977 -0.5810961552776605 0 0.9391686910071007 -0.34345621239396595 0
          0.9753470215021524 -0.22067665859098018 0 0.503832026650084 0.863801649061675 0
          -0.3573670346336221 0.933964026372093 0 -0.9821923862842629 0.18787792931908015 0
          -0.8716927290896774 -0.49005284006134503 0 0.22052336819547866 0.975381691482735 0
          -0.014278976462619166 -0.999898050218711 0 0.7824691845016747 -0.622689308809204 0
          -0.7799019121574496 -0.6259017554002815 0 -0.5613008747941305 -0.8276118220248813 0
          -0.9136856542189407 -0.40642161024545226 0 0.7793885058227866 -0.626540945981445 0
          0.5485288130428633 -0.8361316530677376 0 -0.9174912646828168 0.3977559292213321 0
          0.9942672796137513 -0.10692322801650936 0 -0.7298445111809009 -0.6836131870430177 0
          -0.7882054734949124 0.6154121639622189 0 0.985938084711306 0.16711102033020367 0
          -0.2938930633616392 0.9558383060475822 0 -0.018703455399974252 0.9998250750786866 0
          0.059546875806681665 0.9982255103841334 0 -0.12350172223992163 0.9923443578737037 0
          0.29883141286471354 -0.9543059188149674 0 -0.9138633638705631 0.40602186169611454 0
          -0.922816098632183 -0.38524076641144467 0 0.547899459116194 -0.836544190524435 0
          -0.17824501338694598 0.9839861356760508 0 0.23239235849277715 -0.9726221217482998 0
          -0.3069840339079427 0.9517146646582719 0 0.9501200664863834 -0.31188436841225375 0
          -0.8127225882179506 -0.5826508342054575 0 -0.9832506702896715 -0.18225838629514887 0
          -0.991750206562759 0.12818552095585806 0 0.08773446038250651 0.9961438974673239 0
          -0.9895266739581552 -0.1443501351759351 0 0.18873946546643525 -0.9820271962504116 0
          0.9794642980217971 -0.20161768002997194 0 0.14724333724367897 0.9891002980675642 0
          0.6244334612960061 -0.7810780066125849 0 -0.5282649508038365 -0.8490795850520846 0
          -0.8820917403047078 -0.47107765993115386 0 0.039474744628325495 -0.9992205685115416 0
          0.49774415031384245 0.867323907677144 0 0.9156662512034276 0.4019394437064636 0
          -0.9608784052085543 0.2769705587311862 0 0.9993820762726527 -0.035149190957427114 0
          -0.9855261546706855 -0.16952344516323403 0 0.9633072713282623 -0.26840100783361004 0
          -0.6126440290119867 0.790358965101276 0 0.7540459224264549 -0.6568217009752623 0
          -0.7008217962885523 -0.7133363931882958 0 0.9899285249947826 0.1415680592565078 0
          -0.6403118670307952 0.7681150388708303 0 -0.9602338787598892 0.2791968805014456 0
          0.9463765124515234 0.32306577763683286 0 0.6366269123640639 -0.7711719486948411 0
          -0.20697281350705873 -0.9783466944130655 0 -0.9317847256522349 -0.3630113290810486 0
          0.5940392495160618 0.8044360571446273 0 0.36767286850050834 -0.9299551934198808 0
          0.09471449986634377 -0.9955044768935338 0 0.9985159317879628 0.05446038895946709 0
          0.08244354423527744 -0.996595736501981 0 -0.2571428019424623 -0.9663734161333183 0
          -0.8131127933516722 -0.5821061632450225 0 -0.8623166061046585 -0.5063695003020454 0
          -0.9066582477661718 0.4218658812437611 0 0.4741278956703924 -0.8804559833104466 0
          0.9758371543530422 0.21849908051101036 0 -0.2869118472492986 -0.957956988548022 0
          0.9490025348047496 -0.3152684394831807 0 0.030803969324805718 0.9995254451357586 0
          0.6674482846107583 -0.7446561537851925 0 -0.4534893072436154 -0.8912617170145398 0
          -0.9838979989541614 0.17873088052711275 0 0.8728545313538095 -0.48798049868321747 0
          -0.20609189864809588 0.978532640902501 0 -0.752999005008366 0.6580216550056774 0
          0.7204932777119843 0.6934619216451913 0 0.8316909273798467 0.5552388686989145 0
          0.9704412214884545 0.2413375968140821 0 -0.8860363280127396 0.46361581664315654 0
          -0.8008718223098416 0.5988358074047623 0 -0.9846245095420214 0.17468421568399894 0
          0.8778158269337872 0.47899830269485444 0 0.8970619568103918 0.4419047925102314 0
          -0.6929240937634806 -0.721010541033943 0 0.4454757841741794 0.8952939884274885 0
          0.18082862720209958 -0.983514619913809 0 0.9941222511785989 -0.10826333502896886 0
          -0.8287555771209604 0.5596107516755767 0 0.9224129879723643 0.38620497099324724 0
          0.8312569958635222 -0.5558883042733964 0 -0.7554408797340497 -0.655216816959581 0
          0.14401007098188137 0.9895762221556222 0 -0.9654030910091962 -0.2607620982234376 0
          -0.6821480304689354 0.7312141030692395 0 0.6904684524700588 0.7233625067306171 0
          -0.08580482676952284 -0.9963119650506322 0 0.4189873959751139 0.9079920495323696 0
          0.42656766591988377 0.904455651976183 0 0.012786729489566405 -0.9999182464326575 0
          <InformationKey name="L2_NORM_RANGE" location="vtkDataArray" length="2">
            <Value index="0">
              1
            </Value>
            <Value index="1">
              1
            </Value>
          </InformationKey>
        </DataArray>
        <DataArray type="Float64" Name="velocity" NumberOfComponents="3" format="ascii" RangeMin="2.98391528750295" RangeMax="65.61664053985334">
          20.472372037415383 -30.489259884928693 0 -7.778161120144524 43.605506408926914 0
          -35.778279556590725 14.318100471258902 0 -2.7267860528004704 -6.306708942777526 0
          -25.56803597993237 0.5919415230237348 0 40.69440930810454 -42.34960265147567 0
          21.390392053252754 11.720491675449018 0 -31.091580543867785 -10.301819378431787 0
          -22.233594277397 35.80993014386058 0 40.8936574712134 11.727908496204755 0
          -31.918129728714472 1.502371966558826 0 32.46317064138093 -14.067556233339687 0
          31.61170207931397 -20.66117562390716 0 -32.788218903188394 -0.7210412736466054 0
          -30.467523066969363 36.43074923190564 0 -29.58028331655805 11.627227611362315 0
          37.80505508071815 -10.753091333426255 0 44.65772551607054 -33.330173144632525 0
          47.18774005931614 6.396489460552942 0 9.836891189866492 -36.87781496106794 0
          6.677739541459459 5.438027088135769 0 -18.951003944933063 -37.93510690561732 0
          23.77908201111339 -25.727634747998636 0 32.285914726045576 -31.45240287607238 0
          -18.732306147503376 38.172541468590836 0 17.42129460906331 23.929755673071398 0
          -43.74567596165927 -36.843843838172035 0 -41.00470913383489 -49.1685554695042 0
          -4.3489588147394045 13.430332075080756 0 2.9762992276979077 -0.21305715242312573 0
          -16.420210149222868 -24.717665071237764 0 -26.63245586108499 -32.68369682188443 0
          9.59810303037343 22.68931438280859 0 37.757309281314306 20.71597266757422 0
          -26.523439665569285 -2.200425364398683 0 -48.17882370239545 24.733119867345934 0
          15.472358145094617 -42.19330576503555 0 -2.7230899171649696 49.647506705142575 0
          3.209752212846098 39.943600631846664 0 27.290092728339346 -29.624030405099575 0
          40.710862227344634 -12.518743865476708 0 34.808888796398136 -17.330075407408792 0
          -17.326333983387784 15.921061981020685 0 8.676498234140595 -45.101679767889145 0
          26.99656655139428 -0.8247828969564566 0 -1.181598492863479 -7.087342925864128 0
          -10.527228461045638 27.645380145270124 0 47.47543864880045 24.850515939083976 0
          13.45020038299144 -42.781974126121774 0 13.33632968921519 2.89206325620421 0
          -20.383234879262602 -17.467213088655853 0 13.111992425538233 49.45054225750374 0
          1.6047826830209004 22.445391370448775 0 -25.442525168919026 -16.766088433362327 0
          24.860911549332883 18.296648546241826 0 18.127137052491975 -42.11576276898946 0
          -4.106371249565804 19.81468592825003 0 -43.2115168522386 -43.085994704941484 0
          2.7042817825837204 -23.795120132132308 0 -1.6624837545658195 -36.91945356486498 0
          -40.55592314206473 -37.96183180819797 0 46.98372058379586 25.62816454897687 0
          -23.182362140209666 22.4905983535036 0 -8.42374893276238 -2.5281598168396826 0
          -44.45585735866184 11.374414308737222 0 -0.9380815156004232 40.44748670579848 0
          43.5214270198436 41.82766196839604 0 -19.617472876146607 29.010177679462174 0
          -27.377259211045168 -5.104813753149479 0 1.0108912986547693 -26.93680745999526 0
          21.18807799653547 48.4452609761332 0 15.521324819791857 -22.733301715898534 0
          -3.0984436752635744 -49.699879474370995 0 -5.357606698271908 47.09441502974741 0
          -19.533649987483585 -28.48909553641595 0 -25.241492794096537 30.645102659141713 0
          -1.3628901407151872 -9.249808436218693 0 -28.437070584076316 4.0252086974848424 0
          22.302423751473526 -21.630608392707323 0 4.286209731170565 25.592468486596516 0
          -16.80227135673981 30.176297340482108 0 35.70724318896097 -48.51082997011254 0
          38.494266527440914 9.308694076898924 0 -41.37827709570729 42.48759424258512 0
          41.371957205314274 48.07567751376408 0 40.00221093710812 44.971458396046486 0
          43.45219546574209 -49.16757290067578 0 27.77940311086799 -47.40411222574361 0
          8.787704962513757 14.978077069606684 0 -17.176354508003442 -38.89206379839693 0
          -37.572734230027905 47.39150589914381 0 3.322947059262674 16.230028184641725 0
          20.82576325094061 -43.12614201683975 0 -29.404442159877867 -6.6570323329381935 0
          -48.88074135310182 -43.07374742736768 0 -15.693819004659524 -18.776991949103287 0
          49.2742614956165 -23.093566379026992 0 35.70662412955289 -14.438908494432013 0
          24.676827977366614 34.48562696853686 0 -28.28613766609157 46.49521791482232 0
          21.219265309149932 48.266786794162286 0 25.989900495501132 -30.673962513745963 0
          -14.741048879365302 -30.369965831724773 0 33.206792723445574 45.25947670903301 0
          26.73700517552618 36.1968809297727 0 -4.433626259916984 -16.731616061562868 0
          33.82599634129042 5.430878965379037 0 -37.91344272052366 -28.781627030961573 0
          -0.8760744559602713 -9.034520229977083 0 25.951148963832622 -14.29357740625877 0
          27.17860558051683 48.15404052238152 0 34.61617221348607 33.462162550860555 0
          -13.28055184508198 -44.93740558320786 0 47.55616001461492 34.25892934866374 0
          36.946038841117556 -42.45015674570037 0 -46.76239316488481 11.393180618063838 0
          23.568028568935404 11.552780427737098 0 16.263007945057282 45.12644264060411 0
          -23.411248530157515 41.93857265065735 0 -38.160345232049345 -18.69342940760771 0
          37.21153998486223 -26.635630373860984 0 30.80584946405935 5.653176675427417 0
          44.35923105765637 0.370346282237378 0 16.64168251311186 -34.7034267378138 0
          47.322877480901255 13.376690736606477 0 -32.1350217035443 -42.58571958176201 0
          -0.5025219679409361 28.59799073613067 0 -3.5320261053794297 38.30316610148137 0
          14.736889949280638 40.32409694969634 0 -49.402638529229115 19.356180838194604 0
          8.508964450503598 -39.46387075781778 0 49.03198966734128 -27.000797471280585 0
          -16.70921662991016 18.938285128010065 0 46.14207459237997 -27.3400906744995 0
          42.424140585792586 37.62461911345025 0 -6.825547086494495 -2.911259141055119 0
          6.210247997996007 33.76154121673389 0 -35.16911208657487 13.927818279591207 0
          49.5593687100304 13.93941034113417 0 -6.0481675260535965 -47.161165000275155 0
          -41.68490984500472 3.0367185203014984 0 28.200151364646487 23.664522522360798 0
          -30.983903256438072 -23.817273645282434 0 -4.775523168997552 -3.9973115200368454 0
          17.36371431475763 -32.304692769073746 0 -31.21691646176371 -40.35131875297581 0
          -17.61253928181918 -32.96735050248542 0 -47.52659271635095 33.064298464373394 0
          -25.51716157275273 -35.79649925661745 0 -34.4558032257712 -19.698927528483058 0
          -46.64276824331557 -9.071061809886274 0 28.312364537561464 -5.662808823633235 0
          -48.25117889494449 -21.421563451189467 0 45.139670111270334 -32.86849758057289 0
          <InformationKey name="L2_NORM_RANGE" location="vtkDataArray" length="2">
            <Value index="0">
              2.9839152875
            </Value>
            <Value index="1">
              65.61664054
            </Value>
          </InformationKey>
        </DataArray>
        <DataArray type="Float64" Name="force" NumberOfComponents="3" format="ascii" RangeMin="0.49999999999999994" RangeMax="0.5">
          -0.45891185592839584 -0.19849410189815525 0 0.060418433592058556 -0.49633618937397866 0
          -0.337167996004573 -0.36921232708329266 0 -0.15752785856090212 0.4745365884494223 0
          -0.42078867675842274 0.27006830527089926 0 0.2858623933318964 0.4102227347168367 0
          0.47420109793517934 -0.15853491324333088 0 0.43980002236373683 0.23785697452220433 0
          0.4970383559575471 -0.05434034143266603 0 -0.22388743060136265 -0.44707316897653343 0
          -0.4311478281524073 0.25320258742647606 0 -0.49620570769942635 -0.06148085593509126 0
          0.03140390453718311 -0.4990128202559725 0 -0.3072348823967418 0.39447018523414445 0
          0.42542619778090485 0.2627023986218673 0 0.49630223666138046 0.060696704069587534 0
          -0.39478473426436916 -0.3068305942891149 0 -0.4841690962035552 0.12482101698605287 0
          0.4810510862497209 -0.13634460905354323 0 -0.44160795454490187 -0.23448329254483755 0
          0.4131801268353108 0.2815709196425591 0 0.2834035866505937 -0.4119252445208711 0
          -0.4144030017421964 -0.2797680327468761 0 0.3155055151783448 0.3878869292616693 0
          -0.392656722773363 -0.3095491852046818 0 -0.3027914293291887 0.3978911287334601 0
          0.42314804274642903 -0.2663564039400334 0 0.465570427095696 0.18232985881070385 0
          -0.48260874845506563 0.1307241213955373 0 -0.17802838184972544 -0.46723216419245833 0
          0.2586911098626291 0.4278772133194769 0 -0.4991772241170033 -0.028672267486947244 0
          -0.497436510382523 0.050565978072792124 0 0.06529990141742817 0.49571758378624636 0
          0.46015295397402917 -0.1955997416894383 0 -0.25724219645396973 0.4287498715609572 0
          0.35413250532728424 0.35297332572111023 0 -0.3237463222233407 -0.38103584981844013 0
          -0.42212680106365286 -0.26797194596406404 0 0.4453907222805824 0.2272159864674603 0
          -0.2655932953622815 0.4236274323726025 0 0.3647362539408155 -0.34200506584145934 0
          0.08049130311646274 -0.49347862174831214 0 -0.4981334646514058 0.04316307906517629 0
          0.015106152093879594 0.49977175207179986 0 -0.4251315560769427 0.2631789505784939 0
          0.26617076256765904 -0.42326484044171553 0 -0.4365188626786294 0.24382633681732563 0
          -0.3034630663868885 -0.3973791229280508 0 -0.40376985517603775 0.2949066022508169 0
          0.40691745425869885 -0.2905480776388302 0 0.4695843455035503 -0.17172810619698298 0
          0.4876735107510762 -0.11033832929549009 0 0.251916013325042 0.4319008245308375 0
          -0.17868351731681106 0.4669820131860465 0 -0.49109619314213143 0.09393896465954008 0
          -0.4358463645448387 -0.24502642003067251 0 0.11026168409773933 0.4876908457413675 0
          -0.007139488231309583 -0.4999490251093555 0 0.39123459225083734 -0.311344654404602 0
          -0.3899509560787248 -0.31295087770014074 0 -0.28065043739706524 -0.41380591101244063 0
          -0.45684282710947033 -0.20321080512272613 0 0.3896942529113933 -0.3132704729907225 0
          0.27426440652143164 -0.4180658265338688 0 -0.4587456323414084 0.19887796461066606 0
          0.49713363980687564 -0.05346161400825468 0 -0.36492225559045044 -0.34180659352150883 0
          -0.3941027367474562 0.30770608198110944 0 0.492969042355653 0.08355551016510183 0
          -0.1469465316808196 0.4779191530237911 0 -0.009351727699987126 0.4999125375393433 0
          0.029773437903340833 0.4991127551920667 0 -0.061750861119960816 0.49617217893685184 0
          0.14941570643235677 -0.4771529594074837 0 -0.45693168193528155 0.20301093084805727 0
          -0.4614080493160915 -0.19262038320572233 0 0.273949729558097 -0.4182720952622175 0
          -0.08912250669347299 0.4919930678380254 0 0.11619617924638857 -0.4863110608741499 0
          -0.15349201695397136 0.47585733232913596 0 0.4750600332431917 -0.15594218420612688 0
          -0.4063612941089753 -0.29132541710272875 0 -0.49162533514483575 -0.09112919314757444 0
          -0.4958751032813795 0.06409276047792903 0 0.043867230191253256 0.49807194873366195 0
          -0.4947633369790776 -0.07217506758796755 0 0.09436973273321762 -0.4910135981252058 0
          0.48973214901089857 -0.10080884001498597 0 0.07362166862183948 0.4945501490337821 0
          0.31221673064800304 -0.39053900330629243 0 -0.26413247540191825 -0.4245397925260423 0
          -0.4410458701523539 -0.23553882996557693 0 0.019737372314162747 -0.4996102842557708 0
          0.24887207515692122 0.433661953838572 0 0.4578331256017138 0.2009697218532318 0
          -0.48043920260427714 0.1384852793655931 0 0.49969103813632637 -0.017574595478713557 0
          -0.49276307733534275 -0.08476172258161702 0 0.48165363566413116 -0.13420050391680502 0
          -0.30632201450599333 0.395179482550638 0 0.3770229612132274 -0.32841085048763113 0
          -0.3504108981442762 -0.3566681965941479 0 0.4949642624973913 0.0707840296282539 0
          -0.3201559335153976 0.38405751943541516 0 -0.4801169393799446 0.1395984402507228 0
          0.4731882562257617 0.16153288881841643 0 0.31831345618203194 -0.38558597434742053 0
          -0.10348640675352937 -0.48917334720653277 0 -0.46589236282611746 -0.1815056645405243 0
          0.2970196247580309 0.40221802857231365 0 0.18383643425025417 -0.4649775967099404 0
          0.047357249933171884 -0.4977522384467669 0 0.4992579658939814 0.027230194479733544 0
          0.04122177211763872 -0.4982978682509905 0 -0.12857140097123115 -0.48318670806665914 0
          -0.4065563966758361 -0.29105308162251126 0 -0.4311583030523293 -0.2531847501510227 0
          -0.4533291238830859 0.21093294062188056 0 0.2370639478351962 -0.4402279916552233 0
          0.4879185771765211 0.10924954025550518 0 -0.1434559236246493 -0.478978494274011 0
          0.4745012674023748 -0.15763421974159034 0 0.015401984662402859 0.4997627225678793 0
          0.33372414230537917 -0.3723280768925962 0 -0.2267446536218077 -0.4456308585072699 0
          -0.4919489994770807 0.08936544026355638 0 0.43642726567690476 -0.24399024934160873 0
          -0.10304594932404794 0.4892663204512505 0 -0.376499502504183 0.3290108275028387 0
          0.3602466388559922 0.34673096082259564 0 0.41584546368992337 0.27761943434945724 0
          0.48522061074422723 0.12066879840704105 0 -0.4430181640063698 0.23180790832157827 0
          -0.4004359111549208 0.29941790370238114 0 -0.4923122547710107 0.08734210784199947 0
          0.4389079134668936 0.23949915134742722 0 0.4485309784051959 0.2209523962551157 0
          -0.3464620468817403 -0.3605052705169715 0 0.2227378920870897 0.44764699421374426 0
          0.09041431360104979 -0.4917573099569045 0 0.49706112558929944 -0.05413166751448443 0
          -0.4143777885604802 0.27980537583778836 0 0.46120649398618213 0.19310248549662362 0
          0.4156284979317611 -0.2779441521366982 0 -0.37772043986702486 -0.3276084084797905 0
          0.07200503549094069 0.4947881110778111 0 -0.4827015455045981 -0.1303810491117188 0
          -0.3410740152344677 0.36560705153461975 0 0.3452342262350294 0.36168125336530854 0
          -0.04290241338476142 -0.4981559825253161 0 0.20949369798755696 0.4539960247661848 0
          0.21328383295994188 0.4522278259880915 0 0.0063933647447832025 -0.49995912321632874 0
          <InformationKey name="L2_NORM_RANGE" location="vtkDataArray" length="2">
            <Value index="0">
              0.5
            </Value>
            <Value index="1">
              0.5
            </Value>
          </InformationKey>
        </DataArray>
        <DataArray type="Float64" Name="radius" format="ascii" RangeMin="1" RangeMax="1">
          1 1 1 1 1 1
          1 1 1 1 1 1
          1 1 1 1 1 1
          1 1 1 1 1 1
          1 1 1 1 1 1
          1 1 1 1 1 1
          1 1 1 1 1 1
          1 1 1 1 1 1
          1 1 1 1 1 1
          1 1 1 1 1 1
          1 1 1 1 1 1
          1 1 1 1 1 1
          1 1 1 1 1 1
          1 1 1 1 1 1
          1 1 1 1 1 1
          1 1 1 1 1 1
          1 1 1 1 1 1
          1 1 1 1 1 1
          1 1 1 1 1 1
          1 1 1 1 1 1
          1 1 1 1 1 1
          1 1 1 1 1 1
          1 1 1 1 1 1
          1 1 1 1 1 1
          1 1 1 1 1 1
          1 1 1 1
        </DataArray>
      </PointData>
      <CellData>
      </CellData>
      <Points>
        <DataArray type="Float32" Name="Points" NumberOfComponents="3" format="ascii" RangeMin="2.6397506688394814" RangeMax="67.45596524736244">
          -37.28526306152344 33.741939544677734 0 47.04363250732422 -27.778671264648438 0
          -19.00294303894043 4.162851810455322 0 -31.222698211669922 49.311771392822266 0
          48.728179931640625 46.646240234375 0 22.645322799682617 48.84232711791992 0
          -39.43169403076172 29.688268661499023 0 -20.319210052490234 -50.08314895629883 0
          -38.72161865234375 13.751228332519531 0 37.560028076171875 0.5947751998901367 0
          30.01201629638672 -13.366401672363281 0 -28.474159240722656 18.006481170654297 0
          -10.859338760375977 23.979782104492188 0 -3.1316092014312744 -7.58995246887207 0
          -32.421634674072266 -19.79990005493164 0 29.30881690979004 -18.963491439819336 0
          37.228145599365234 -35.58214569091797 0 49.279296875 31.6593074798584 0
          -37.43830490112305 26.303184509277344 0 -1.4122462272644043 15.63233757019043 0
          -38.13190841674805 -29.14569854736328 0 -45.03573989868164 -45.97195053100586 0
          -8.839844703674316 -4.230745792388916 0 -1.0644097328186035 29.948688507080078 0
          41.67815017700195 30.522436141967773 0 21.215967178344727 -49.526702880859375 0
          20.449913024902344 14.56631851196289 0 -4.4913787841796875 26.966962814331055 0
          7.739126682281494 37.763099670410156 0 30.63951301574707 -47.50871276855469 0
          32.60067367553711 32.49982833862305 0 43.750431060791016 -8.95935344696045 0
          -7.84309720993042 7.826849937438965 0 -34.14840316772461 26.601974487304688 0
          -26.321826934814453 30.946882247924805 0 49.4401741027832 -17.126441955566406 0
          -20.549724578857422 -48.73934555053711 0 -29.059803009033203 40.43262481689453 0
          34.854713439941406 45.629173278808594 0 27.703859329223633 49.233673095703125 0
          -43.12392044067383 29.604591369628906 0 9.143338203430176 23.757061004638672 0
          19.355613708496094 17.940658569335938 0 -10.702083587646484 5.761978626251221 0
          -29.26155662536621 2.2789978981018066 0 -9.530467987060547 -14.684650421142578 0
          9.506187438964844 -13.995806694030762 0 46.97297668457031 -34.6226806640625 0
          -10.675209999084473 -11.26539134979248 0 22.24885368347168 -11.487093925476074 0
          42.65992736816406 -6.0906243324279785 0 35.34675216674805 12.019694328308105 0
          -37.24476623535156 -2.4123055934906006 0 -15.837244033813477 3.095017671585083 0
          21.54948616027832 48.75509262084961 0 21.97865104675293 41.80417251586914 0
          0.38827162981033325 5.894063472747803 0 0.28081387281417847 -4.001893043518066 0
          4.772516250610352 -5.469618320465088 0 35.30606460571289 10.77165699005127 0
          0.5438910722732544 47.505836486816406 0 -47.058998107910156 47.86540222167969 0
          -13.2294282913208 17.875905990600586 0 -15.019352912902832 35.32694625854492 0
          -45.53365707397461 15.690970420837402 0 24.739822387695312 -35.9228515625 0
          48.272552490234375 -40.034942626953125 0 -22.43454360961914 30.02836036682129 0
          -42.377376556396484 12.809432983398438 0 -49.43285369873047 18.71803092956543 0
          3.223602056503296 -5.999502182006836 0 -29.640493392944336 -36.017112731933594 0
          -11.39235782623291 26.8046817779541 0 -46.36166000366211 -24.747098922729492 0
          1.366573691368103 32.63119888305664 0 47.86735153198242 32.3607063293457 0
          -19.41243553161621 -44.23662185668945 0 -24.504928588867188 3.5559682846069336 0
          38.98878479003906 -15.377317428588867 0 -47.148651123046875 -33.593448638916016 0
          38.01493835449219 -29.52830696105957 0 -23.259477615356445 -0.8742861151695251 0
          -27.69035530090332 -0.15538525581359863 0 44.951324462890625 15.107678413391113 0
          26.508544921875 -6.555986404418945 0 4.652881145477295 -44.526084899902344 0
          -16.99645233154297 -9.455912590026855 0 40.61662292480469 31.580307006835938 0
          -24.579221725463867 -36.36489486694336 0 -1.3091734647750854 -11.525552749633789 0
          21.237516403198242 -20.952543258666992 0 12.031182289123535 31.248445510864258 0
          -18.697172164916992 -11.947497367858887 0 -15.368762016296387 31.402074813842773 0
          17.201940536499023 -12.037331581115723 0 -4.194191932678223 -19.290000915527344 0
          40.73772048950195 -1.3973439931869507 0 25.5894832611084 -38.9062385559082 0
          -10.816298484802246 37.54640579223633 0 -13.280529022216797 41.8489875793457 0
          5.104161262512207 -36.225181579589844 0 -30.06756019592285 45.163578033447266 0
          49.78580856323242 -26.636409759521484 0 -48.36802291870117 -11.302014350891113 0
          28.146568298339844 -2.646106481552124 0 4.071061611175537 -48.31452941894531 0
          40.07218933105469 -29.80902862548828 0 38.28117752075195 -5.581610202789307 0
          -34.81357955932617 -25.876544952392578 0 29.252744674682617 -2.6382386684417725 0
          -40.805538177490234 14.418747901916504 0 13.781608581542969 8.13032054901123 0
          22.54480743408203 -14.520953178405762 0 18.307737350463867 21.196582794189453 0
          -33.70623016357422 -36.32029342651367 0 -4.800713539123535 -46.213096618652344 0
          29.83083152770996 -33.00706100463867 0 33.25846481323242 -16.794923782348633 0
          15.581232070922852 -7.896881103515625 0 27.88349151611328 -38.77119827270508 0