<?xml version="1.0"?>
<VTKFile type="PolyData" version="0.1" byte_order="LittleEndian" header_type="UInt32" compressor="vtkZLibDataCompressor">
  <PolyData>
    <Piece NumberOfPoints="154" NumberOfVerts="0" NumberOfLines="0" NumberOfStrips="0" NumberOfPolys="0">
      <PointData>
        <DataArray type="Int32" Name="id" format="ascii" RangeMin="0" RangeMax="153">
          0 1 2 3 4 5
          6 7 8 9 10 11
          12 13 14 15 16 17
          18 19 20 21 22 23
          24 25 26 27 28 29
          30 31 32 33 34 35
          36 37 38 39 40 41
          42 43 44 45 46 47
          48 49 50 51 52 53
          54 55 56 57 58 59
          60 61 62 63 64 65
          66 67 68 69 70 71
          72 73 74 75 76 77
          78 79 80 81 82 83
          84 85 86 87 88 89
          90 91 92 93 94 95
          96 97 98 99 100 101
          102 103 104 105 106 107
          108 109 110 111 112 113
          114 115 116 117 118 119
          120 121 122 123 124 125
          126 127 128 129 130 131
          132 133 134 135 136 137
          138 139 140 141 142 143
          144 145 146 147 148 149
          150 151 152 153
        </DataArray>
        <DataArray type="Float64" Name="director" NumberOfComponents="3" format="ascii" RangeMin="0.9999999999999999" RangeMax="1">
          -0.958207489536108 -0.2860741284997814 0 0.0681801142421532 -0.9976730286130456 0
          -0.750063932880379 -0.6613653276306661 0 -0.20059225675087164 0.9796748167282817 0
          -0.8772958097434533 0.47995006220082786 0 0.5295926709281483 0.8482520868817182 0
          0.9511974694115855 -0.3085828481704644 0 0.9020692369348209 0.43159134812439187 0
          0.9926671935776666 -0.12087945563510538 0 -0.4638643622957916 -0.8859062328440401 0
          -0.82261149001301 0.5686038484732366 0 -0.99936511341464 -0.035628220412247724 0
          -0.00926095058992777 -0.9999571164775872 0 -0.47457895892963453 0.8802129354544072 0
          0.789461502299865 0.6138000785161568 0 0.9935339062455061 0.11353579673629806 0
          -0.840172145806748 -0.5423197999432481 0 -0.9417733598827702 0.3362483287915617 0
          0.9061022483425285 -0.423058761342458 0 -0.9066211210874777 -0.42194566332418326 0
          0.7952645171034799 0.606262606331752 0 0.5539268307150269 -0.832565352518351 0
          -0.8965558836294695 -0.4429306351217775 0 0.6699821735175802 0.7423771865895793 0
          -0.7671441666798844 -0.6414747286752813 0 -0.4213517625118961 0.9068972886871581 0
          0.8423001906588331 -0.5390087094065303 0 0.902350050957612 0.4310039275189903 0
          -0.9581912384320943 0.28612855605823295 0 -0.4500050082206954 -0.8930260312982438 0
          0.47090330876565173 0.8821848297230923 0 -0.9993876566548127 0.034990166132818974 0
          -0.9924406509051368 0.12272552477373389 0 0.1727159086176555 0.984971682288571 0
          0.8790339227730501 -0.47675922918620384 0 -0.5922490734806952 0.8057549472148825 0
          0.6802723399941754 0.7329594418785047 0 -0.7592687112225256 -0.6507772461898811 0
          -0.8979803891533337 -0.44003547663345 0 0.9055937828281242 0.4241460839180863 0
          -0.5744657255008716 0.8185286373883062 0 0.7491913353428317 -0.662353638962771 0
          0.24830806847500034 -0.9686811152955417 0 -0.9999978090771086 -0.0020932847352411405 0
          0.17886337662433965 0.9838739210399571 0 -0.8829713565072563 0.46942686713452575 0
          0.5212619980289028 -0.8533967010780602 0 -0.9082747048766165 0.4183743066696317 0
          -0.5519364273282872 -0.8338861913883011 0 -0.8314747705449739 0.555562513086676 0
          0.8102259525727804 -0.5861176552344509 0 0.9782367618643399 -0.2074917775170157 0
          0.9934361840504085 -0.11438771008881579 0 0.37549224380507823 0.9268255363563456 0
          -0.24353007087298503 0.9698933470132677 0 -0.9928425571661774 0.11943055170150442 0
          -0.8999198658519957 -0.4360553119099985 0 0.20490127054004315 0.9787826466233839 0
          -0.027540112520534732 -0.999620699166617 0 0.8068594496442587 -0.5907434540642528 0
          -0.8884424265581986 -0.4589880768510005 0 -0.5363486952203322 -0.8439964911866916 0
          -0.8690801696712925 -0.49467126324875327 0 0.7405167156969789 -0.6720379407245991 0
          0.44691785427386277 -0.8945750005065234 0 -0.9593889923131798 0.28208644318417975 0
          0.9321623761266935 -0.36204047361287767 0 -0.7831015751662149 -0.6218938196928742 0
          -0.7584988017236219 0.6516744338884484 0 0.999941317398634 0.010833363239748407 0
          -0.3120115500891511 0.9500783086730089 0 -0.12681015153190206 0.9919270061191278 0
          0.15310294636037575 0.9882102447433805 0 -0.18380170273817628 0.9829633431977751 0
          0.1727592028372152 -0.9849640896170022 0 -0.9320778856385186 0.3622579400146098 0
          -0.9165783957091733 -0.39985502937839623 0 0.5610335259254167 -0.8277930796930444 0
          -0.15282059226843722 0.9882539484255675 0 0.1704764732845936 -0.9853617467998478 0
          -0.3764500281961488 0.9264369251444584 0 0.9723410329709551 -0.2335656558678439 0
          -0.7418797393531295 -0.6705329614100508 0 -0.9812745040302429 -0.1926145055290514 0
          -0.9852738753957527 0.17098359705724595 0 0.0347521474560625 0.9993959616924576 0
          -0.9498664096391557 -0.312656047181595 0 0.08806800803597153 -0.9961144642863972 0
          0.9894823276844812 -0.14465380465131591 0 0.3039829917384856 0.9526774589197121 0
          0.6696037456346228 -0.7427185360768125 0 -0.4448104985242046 -0.8956247095757511 0
          -0.9452385873278323 -0.3263801664110184 0 0.1563547358248661 -0.9877009651636148 0
          0.391707522667486 0.920089787295621 0 0.9493466329225335 0.31423076004530254 0
          -0.980409861354908 0.19696828109634834 0 0.9973129750537113 -0.07325864992965292 0
          -0.9397852161716489 -0.34176563236406204 0 0.9443776056923234 -0.3288630989740784 0
          -0.6383180639125404 0.7697727257333465 0 0.7202264268534402 -0.6937390677062423 0
          -0.5916995574742966 -0.8061585660927517 0 0.9905191014130944 0.1373750695570195 0
          -0.6639159991723793 0.7478071583255547 0 -0.9682195625318312 0.25010173676060193 0
          0.9627346474571133 0.27044777422938376 0 0.7365906889263251 -0.6763387886163574 0
          -0.09491199773727135 -0.9954856667403706 0 -0.9233766729842131 -0.3838951937555427 0
          0.4654489122565008 0.8850747483005265 0 0.26390483811445714 -0.9645487216412565 0
          -0.0071428699840282335 -0.9999744893787997 0 0.9987513417658266 0.04995755519399608 0
          -0.16159775885390545 -0.9868567091191076 0 -0.2997068891614316 -0.9540313310312074 0
          -0.8247697243260375 -0.5654687452327954 0 -0.8837887925055575 -0.46788606544923794 0
          -0.870791992480634 0.49165161021968334 0 0.5434913090065823 -0.8394147943861316 0
          0.9828202915532069 0.18456509559304338 0 -0.3053342476132787 -0.952245240069192 0
          0.9366928954592811 -0.3501519949909013 0 -0.048808254283423516 0.9988081669238617 0
          0.6947973226022508 -0.7192055898731209 0 -0.4829399244298034 -0.8756534870550884 0
          -0.9999214001791803 0.012537681751730362 0 0.848360259431247 -0.5294193708372854 0
          -0.3411449022795929 0.9400107210285673 0 -0.845614171720599 0.5337945977483147 0
          0.7396937250490213 0.6729436775266582 0 0.7888800276766542 0.6145472332806334 0
          0.9670403797055486 0.254623062621885 0 -0.8412169927563535 0.5406976706977358 0
          -0.7913880006495311 0.6113141847102338 0 -0.9503643292126067 0.3111392642536007 0
          0.8793648780642402 0.4761485180351441 0 0.8342622301549635 0.5513678729640191 0
          -0.7321577395977935 -0.681135114604327 0 0.4140032089459775 0.9102754214974901 0
          -0.04227773686644804 -0.9991058967724349 0 0.9820902794289116 -0.18841094196262156 0
          -0.8173120104575282 0.5761953467027248 0 0.9426743110097782 0.3337141641618467 0
          0.812962631412217 -0.582315859244211 0 -0.820002131147904 -0.5723604676363451 0
          0.10123474045386952 0.9948625670539815 0 -0.9574145309015677 -0.28871684401595127 0
          -0.6289415480938385 0.7774525896035885 0 0.815593078877122 0.5786258978716186 0
          -0.09827064363617641 -0.995159726174312 0 0.4498167744071129 0.8931208593812937 0
          0.3048966459627906 0.9523854447022175 0 -0.13560273747768117 -0.9907632903920891 0
          <InformationKey name="L2_NORM_RANGE" location="vtkDataArray" length="2">
            <Value index="0">
              1
            </Value>
            <Value index="1">
              1
            </Value>
          </InformationKey>
        </DataArray>
        <DataArray type="Float64" Name="velocity" NumberOfComponents="3" format="ascii" RangeMin="2.98391528750295" RangeMax="65.61664053985334">
          20.472372037415383 -30.489259884928693 0 -7.778161120144524 43.605506408926914 0
          -35.778279556590725 14.318100471258902 0 -2.7267860528004704 -6.306708942777526 0
          -25.56803597993237 0.5919415230237348 0 40.69440930810454 -42.34960265147567 0
          21.390392053252754 11.720491675449018 0 -31.091580543867785 -10.301819378431787 0
          -22.233594277397 35.80993014386058 0 40.8936574712134 11.727908496204755 0
          -31.918129728714472 1.502371966558826 0 32.46317064138093 -14.067556233339687 0
          31.61170207931397 -20.66117562390716 0 -32.788218903188394 -0.7210412736466054 0
          -30.467523066969363 36.43074923190564 0 -29.58028331655805 11.627227611362315 0
          37.80505508071815 -10.753091333426255 0 44.65772551607054 -33.330173144632525 0
          47.18774005931614 6.396489460552942 0 9.836891189866492 -36.87781496106794 0
          6.677739541459459 5.438027088135769 0 -18.951003944933063 -37.93510690561732 0
          23.77908201111339 -25.727634747998636 0 32.285914726045576 -31.45240287607238 0
          -18.732306147503376 38.172541468590836 0 17.42129460906331 23.929755673071398 0
          -43.74567596165927 -36.843843838172035 0 -41.00470913383489 -49.1685554695042 0
          -4.3489588147394045 13.430332075080756 0 2.9762992276979077 -0.21305715242312573 0
          -16.420210149222868 -24.717665071237764 0 -26.63245586108499 -32.68369682188443 0
          9.59810303037343 22.68931438280859 0 37.757309281314306 20.71597266757422 0
          -26.523439665569285 -2.200425364398683 0 -48.17882370239545 24.733119867345934 0
          15.472358145094617 -42.19330576503555 0 -2.7230899171649696 49.647506705142575 0
          3.209752212846098 39.943600631846664 0 27.290092728339346 -29.624030405099575 0
          40.710862227344634 -12.518743865476708 0 34.808888796398136 -17.330075407408792 0
          -17.326333983387784 15.921061981020685 0 8.676498234140595 -45.101679767889145 0
          26.99656655139428 -0.8247828969564566 0 -1.181598492863479 -7.087342925864128 0
          -10.527228461045638 27.645380145270124 0 47.47543864880045 24.850515939083976 0
          13.45020038299144 -42.781974126121774 0 13.33632968921519 2.89206325620421 0
          -20.383234879262602 -17.467213088655853 0 13.111992425538233 49.45054225750374 0
          1.6047826830209004 22.445391370448775 0 -25.442525168919026 -16.766088433362327 0
          24.860911549332883 18.296648546241826 0 18.127137052491975 -42.11576276898946 0
          -4.106371249565804 19.81468592825003 0 -43.2115168522386 -43.085994704941484 0
          2.7042817825837204 -23.795120132132308 0 -1.6624837545658195 -36.91945356486498 0
          -40.55592314206473 -37.96183180819797 0 46.98372058379586 25.62816454897687 0
          -23.182362140209666 22.4905983535036 0 -8.42374893276238 -2.5281598168396826 0
          -44.45585735866184 11.374414308737222 0 -0.9380815156004232 40.44748670579848 0
          43.5214270198436 41.82766196839604 0 -19.617472876146607 29.010177679462174 0
          -27.377259211045168 -5.104813753149479 0 1.0108912986547693 -26.93680745999526 0
          21.18807799653547 48.4452609761332 0 15.521324819791857 -22.733301715898534 0
          -3.0984436752635744 -49.699879474370995 0 -5.357606698271908 47.09441502974741 0
          -19.533649987483585 -28.48909553641595 0 -25.241492794096537 30.645102659141713 0
          -1.3628901407151872 -9.249808436218693 0 -28.437070584076316 4.0252086974848424 0
          22.302423751473526 -21.630608392707323 0 4.286209731170565 25.592468486596516 0
          -16.80227135673981 30.176297340482108 0 35.70724318896097 -48.51082997011254 0
          38.494266527440914 9.308694076898924 0 -41.37827709570729 42.48759424258512 0
          41.371957205314274 48.07567751376408 0 40.00221093710812 44.971458396046486 0
          43.45219546574209 -49.16757290067578 0 27.77940311086799 -47.40411222574361 0
          8.787704962513757 14.978077069606684 0 -17.176354508003442 -38.89206379839693 0
          -37.572734230027905 47.39150589914381 0 3.322947059262674 16.230028184641725 0
          20.82576325094061 -43.12614201683975 0 -29.404442159877867 -6.6570323329381935 0
          -48.88074135310182 -43.07374742736768 0 -15.693819004659524 -18.776991949103287 0
          49.2742614956165 -23.093566379026992 0 35.70662412955289 -14.438908494432013 0
          24.676827977366614 34.48562696853686 0 -28.28613766609157 46.49521791482232 0
          21.219265309149932 48.266786794162286 0 25.989900495501132 -30.673962513745963 0
          -14.741048879365302 -30.369965831724773 0 33.206792723445574 45.25947670903301 0
          26.73700517552618 36.1968809297727 0 -4.433626259916984 -16.731616061562868 0
          33.82599634129042 5.430878965379037 0 -37.91344272052366 -28.781627030961573 0
          -0.8760744559602713 -9.034520229977083 0 25.951148963832622 -14.29357740625877 0
          27.17860558051683 48.15404052238152 0 34.61617221348607 33.462162550860555 0
          -13.28055184508198 -44.93740558320786 0 47.55616001461492 34.25892934866374 0
          36.946038841117556 -42.45015674570037 0 -46.76239316488481 11.393180618063838 0
          23.568028568935404 11.552780427737098 0 16.263007945057282 45.12644264060411 0
          -23.411248530157515 41.93857265065735 0 -38.160345232049345 -18.69342940760771 0
          37.21153998486223 -26.635630373860984 0 30.80584946405935 5.653176675427417 0
          44.35923105765637 0.370346282237378 0 16.64168251311186 -34.7034267378138 0
          47.322877480901255 13.376690736606477 0 -32.1350217035443 -42.58571958176201 0
          -0.5025219679409361 28.59799073613067 0 -3.5320261053794297 38.30316610148137 0
          14.736889949280638 40.32409694969634 0 -49.402638529229115 19.356180838194604 0
          8.508964450503598 -39.46387075781778 0 49.03198966734128 -27.000797471280585 0
          -16.70921662991016 18.938285128010065 0 46.14207459237997 -27.3400906744995 0
          42.424140585792586 37.62461911345025 0 -6.825547086494495 -2.911259141055119 0
          6.210247997996007 33.76154121673389 0 -35.16911208657487 13.927818279591207 0
          49.5593687100304 13.93941034113417 0 -6.0481675260535965 -47.161165000275155 0
          -41.68490984500472 3.0367185203014984 0 28.200151364646487 23.664522522360798 0
          -30.983903256438072 -23.817273645282434 0 -4.775523168997552 -3.9973115200368454 0
          17.36371431475763 -32.304692769073746 0 -31.21691646176371 -40.35131875297581 0
          -17.61253928181918 -32.96735050248542 0 -47.52659271635095 33.064298464373394 0
          -25.51716157275273 -35.79649925661745 0 -34.4558032257712 -19.698927528483058 0
          -46.64276824331557 -9.071061809886274 0 28.312364537561464 -5.662808823633235 0
          -48.25117889494449 -21.421563451189467 0 45.139670111270334 -32.86849758057289 0
          <InformationKey name="L2_NORM_RANGE" location="vtkDataArray" length="2">
            <Value index="0">
              2.9839152875
            </Value>
            <Value index="1">
              65.61664054
            </Value>
          </InformationKey>
        </DataArray>
        <DataArray type="Float64" Name="force" NumberOfComponents="3" format="ascii" RangeMin="0.49999999999999994" RangeMax="0.5">
          -0.479103744768054 -0.1430370642498907 0 0.0340900571210766 -0.4988365143065228 0
          -0.3750319664401895 -0.33068266381533307 0 -0.10029612837543582 0.48983740836414086 0
          -0.43864790487172667 0.23997503110041393 0 0.26479633546407416 0.4241260434408591 0
          0.4755987347057927 -0.1542914240852322 0 0.45103461846741044 0.21579567406219594 0
          0.4963335967888333 -0.06043972781755269 0 -0.2319321811478958 -0.44295311642202007 0
          -0.411305745006505 0.2843019242366183 0 -0.49968255670732 -0.017814110206123862 0
          -0.004630475294963885 -0.4999785582387936 0 -0.23728947946481727 0.4401064677272036 0
          0.3947307511499325 0.3069000392580784 0 0.49676695312275304 0.05676789836814903 0
          -0.420086072903374 -0.27115989997162404 0 -0.4708866799413851 0.16812416439578085 0
          0.45305112417126425 -0.211529380671229 0 -0.45331056054373886 -0.21097283166209163 0
          0.39763225855173995 0.303131303165876 0 0.27696341535751345 -0.4162826762591755 0
          -0.44827794181473474 -0.22146531756088875 0 0.3349910867587901 0.37118859329478965 0
          -0.3835720833399422 -0.32073736433764066 0 -0.21067588125594805 0.45344864434357907 0
          0.42115009532941655 -0.26950435470326517 0 0.451175025478806 0.21550196375949515 0
          -0.47909561921604715 0.14306427802911648 0 -0.2250025041103477 -0.4465130156491219 0
          0.23545165438282586 0.44109241486154616 0 -0.49969382832740633 0.017495083066409487 0
          -0.4962203254525684 0.06136276238686694 0 0.08635795430882776 0.4924858411442855 0
          0.4395169613865251 -0.23837961459310192 0 -0.2961245367403476 0.40287747360744125 0
          0.3401361699970877 0.36647972093925235 0 -0.3796343556112628 -0.32538862309494054 0
          -0.44899019457666683 -0.220017738316725 0 0.4527968914140621 0.21207304195904314 0
          -0.2872328627504358 0.4092643186941531 0 0.37459566767141583 -0.3311768194813855 0
          0.12415403423750017 -0.48434055764777084 0 -0.4999989045385543 -0.0010466423676205702 0
          0.08943168831216983 0.49193696051997854 0 -0.44148567825362817 0.23471343356726287 0
          0.2606309990144514 -0.4266983505390301 0 -0.4541373524383083 0.20918715333481586 0
          -0.2759682136641436 -0.41694309569415056 0 -0.41573738527248694 0.277781256543338 0
          0.4051129762863902 -0.29305882761722546 0 0.48911838093216997 -0.10374588875850785 0
          0.4967180920252042 -0.057193855044407896 0 0.18774612190253911 0.4634127681781728 0
          -0.12176503543649252 0.48494667350663384 0 -0.4964212785830887 0.05971527585075221 0
          -0.44995993292599784 -0.21802765595499926 0 0.10245063527002157 0.48939132331169194 0
          -0.013770056260267366 -0.4998103495833085 0 0.40342972482212935 -0.2953717270321264 0
          -0.4442212132790993 -0.22949403842550026 0 -0.2681743476101661 -0.4219982455933458 0
          -0.43454008483564627 -0.24733563162437663 0 0.37025835784848943 -0.33601897036229955 0
          0.22345892713693138 -0.4472875002532617 0 -0.4796944961565899 0.14104322159208987 0
          0.46608118806334675 -0.18102023680643883 0 -0.39155078758310746 -0.3109469098464371 0
          -0.37924940086181097 0.3258372169442242 0 0.499970658699317 0.005416681619874204 0
          -0.15600577504457555 0.47503915433650445 0 -0.06340507576595103 0.4959635030595639 0
          0.07655147318018787 0.49410512237169024 0 -0.09190085136908814 0.49148167159888756 0
          0.0863796014186076 -0.4924820448085011 0 -0.4660389428192593 0.1811289700073049 0
          -0.45828919785458666 -0.19992751468919812 0 0.28051676296270833 -0.4138965398465222 0
          -0.07641029613421861 0.49412697421278373 0 0.0852382366422968 -0.4926808733999239 0
          -0.1882250140980744 0.4632184625722292 0 0.48617051648547754 -0.11678282793392195 0
          -0.3709398696765647 -0.3352664807050254 0 -0.49063725201512143 -0.0963072527645257 0
          -0.49263693769787636 0.08549179852862297 0 0.01737607372803125 0.4996979808462288 0
          -0.47493320481957785 -0.1563280235907975 0 0.04403400401798577 -0.4980572321431986 0
          0.4947411638422406 -0.07232690232565796 0 0.1519914958692428 0.47633872945985606 0
          0.3348018728173114 -0.37135926803840624 0 -0.2224052492621023 -0.44781235478787557 0
          -0.47261929366391614 -0.1631900832055092 0 0.07817736791243304 -0.4938504825818074 0
          0.195853761333743 0.4600448936478105 0 0.47467331646126676 0.15711538002265127 0
          -0.490204930677454 0.09848414054817417 0 0.49865648752685565 -0.03662932496482646 0
          -0.46989260808582445 -0.17088281618203102 0 0.4721888028461617 -0.1644315494870392 0
          -0.3191590319562702 0.38488636286667327 0 0.3601132134267201 -0.34686953385312114 0
          -0.2958497787371483 -0.40307928304637586 0 0.4952595507065472 0.06868753477850975 0
          -0.33195799958618966 0.37390357916277733 0 -0.4841097812659156 0.12505086838030097 0
          0.4813673237285567 0.13522388711469188 0 0.36829534446316253 -0.3381693943081787 0
          -0.047455998868635677 -0.4977428333701853 0 -0.46168833649210655 -0.19194759687777135 0
          0.2327244561282504 0.44253737415026323 0 0.13195241905722857 -0.48227436082062825 0
          -0.0035714349920141168 -0.49998724468939987 0 0.4993756708829133 0.02497877759699804 0
          -0.08079887942695273 -0.4934283545595538 0 -0.1498534445807158 -0.4770156655156037 0
          -0.41238486216301873 -0.2827343726163977 0 -0.44189439625277876 -0.23394303272461897 0
          -0.435395996240317 0.24582580510984167 0 0.27174565450329113 -0.4197073971930658 0
          0.49141014577660347 0.09228254779652169 0 -0.15266712380663935 -0.476122620034596 0
          0.46834644772964057 -0.17507599749545066 0 -0.024404127141711758 0.4994040834619308 0
          0.3473986613011254 -0.35960279493656044 0 -0.2414699622149017 -0.4378267435275442 0
          -0.49996070008959015 0.006268840875865181 0 0.4241801297156235 -0.2647096854186427 0
          -0.17057245113979644 0.47000536051428365 0 -0.4228070858602995 0.26689729887415736 0
          0.36984686252451066 0.3364718387633291 0 0.3944400138383271 0.3072736166403167 0
          0.4835201898527743 0.1273115313109425 0 -0.42060849637817677 0.2703488353488679 0
          -0.39569400032476554 0.3056570923551169 0 -0.47518216460630336 0.15556963212680036 0
          0.4396824390321201 0.23807425901757204 0 0.41713111507748174 0.27568393648200956 0
          -0.36607886979889676 -0.3405675573021635 0 0.20700160447298874 0.45513771074874504 0
          -0.02113886843322402 -0.49955294838621744 0 0.4910451397144558 -0.09420547098131078 0
          -0.4086560052287641 0.2880976733513624 0 0.4713371555048891 0.16685708208092334 0
          0.4064813157061085 -0.2911579296221055 0 -0.410001065573952 -0.28618023381817254 0
          0.05061737022693476 0.49743128352699073 0 -0.47870726545078385 -0.14435842200797563 0
          -0.31447077404691925 0.38872629480179427 0 0.407796539438561 0.2893129489358093 0
          -0.049135321818088204 -0.497579863087156 0 0.22490838720355644 0.44656042969064685 0
          0.1524483229813953 0.47619272235110877 0 -0.06780136873884059 -0.49538164519604455 0
          <InformationKey name="L2_NORM_RANGE" location="vtkDataArray" length="2">
            <Value index="0">
              0.5
            </Value>
            <Value index="1">
              0.5
            </Value>
          </InformationKey>
        </DataArray>
        <DataArray type="Float64" Name="radius" format="ascii" RangeMin="1" RangeMax="1">
          1 1 1 1 1 1
          1 1 1 1 1 1
          1 1 1 1 1 1
          1 1 1 1 1 1
          1 1 1 1 1 1
          1 1 1 1 1 1
          1 1 1 1 1 1
          1 1 1 1 1 1
          1 1 1 1 1 1
          1 1 1 1 1 1
          1 1 1 1 1 1
          1 1 1 1 1 1
          1 1 1 1 1 1
          1 1 1 1 1 1
          1 1 1 1 1 1
          1 1 1 1 1 1
          1 1 1 1 1 1
          1 1 1 1 1 1
          1 1 1 1 1 1
          1 1 1 1 1 1
          1 1 1 1 1 1
          1 1 1 1 1 1
          1 1 1 1 1 1
          1 1 1 1 1 1
          1 1 1 1 1 1
          1 1 1 1
        </DataArray>
      </PointData>
      <CellData>
      </CellData>
      <Points>
        <DataArray type="Float32" Name="Points" NumberOfComponents="3" format="ascii" RangeMin="2.9405050769376464" RangeMax="67.35192363592137">
          -37.434974670410156 33.8253288269043 0 47.24669647216797 -27.803686141967773 0
          -18.99312400817871 4.078034400939941 0 -31.10843849182129 49.3545036315918 0
          48.615840911865234 46.61310577392578 0 22.54522132873535 48.81971740722656 0
          -39.52573776245117 29.72467041015625 0 -20.34195327758789 -50.279815673828125 0
          -38.68217849731445 13.747605323791504 0 37.51382827758789 0.6788700819015503 0
          30.067180633544922 -13.524023056030273 0 -28.473346710205078 17.901456832885742 0
          -10.881169319152832 23.902076721191406 0 -3.277724027633667 -7.374960422515869 0
          -32.41721725463867 -19.77379035949707 0 29.17997932434082 -18.794803619384766 0
          37.1707649230957 -35.63904571533203 0 49.1259765625 31.71872901916504 0
          -37.48602294921875 26.236173629760742 0 -1.4848620891571045 15.483170509338379 0
          -38.299659729003906 -28.996973037719727 0 -44.88558578491211 -45.989078521728516 0
          -9.038395881652832 -4.205698013305664 0 -1.094443917274475 29.940994262695312 0
          41.60606384277344 30.491493225097656 0 21.262807846069336 -49.4109001159668 0
          20.367774963378906 14.776948928833008 0 -4.440460205078125 26.89129638671875 0
          7.8865227699279785 38.007530212402344 0 30.681779861450195 -47.50445556640625 0
          32.72311019897461 32.57727813720703 0 43.86722183227539 -8.62993335723877 0
          -7.721372127532959 7.7857465744018555 0 -34.22050476074219 26.768943786621094 0
          -26.28006935119629 31.096769332885742 0 49.47578811645508 -17.102813720703125 0
          -20.49724769592285 -48.70124053955078 0 -29.01039695739746 40.44036102294922 0
          34.81436538696289 45.590423583984375 0 27.672466278076172 49.24429702758789 0
          -43.13118362426758 29.714067459106445 0 9.187908172607422 23.68684196472168 0
          19.325639724731445 17.94330596923828 0 -10.652410507202148 5.8437652587890625 0
          -29.35859489440918 2.2621750831604004 0 -9.488120079040527 -14.71342945098877 0
          9.540244102478027 -13.841893196105957 0 46.931182861328125 -34.54342269897461 0
          -10.714446067810059 -11.34504508972168 0 22.266849517822266 -11.434212684631348 0
          42.70359802246094 -6.140498161315918 0 35.15299987792969 12.058945655822754 0
          -37.28984832763672 -2.393378973007202 0 -15.943811416625977 3.1991190910339355 0
          21.517417907714844 48.6217155456543 0 22.06809425354004 41.896339416503906 0
          0.5093188285827637 5.9013824462890625 0 0.38220110535621643 -3.8629753589630127 0
          4.646795749664307 -5.390030860900879 0 35.22981262207031 10.745101928710938 0
          0.5014606714248657 47.45278549194336 0 -46.95224380493164 47.90913772583008 0
          -13.247220039367676 17.789066314697266 0 -15.14761734008789 35.46622848510742 0
          -45.451900482177734 15.871973037719727 0 24.757822036743164 -35.997684478759766 0
          48.17551803588867 -40.00642013549805 0 -22.4815731048584 30.103017807006836 0
          -42.43181610107422 12.857779502868652 0 -49.364723205566406 18.605670928955078 0
          3.1901073455810547 -6.019662380218506 0 -29.623918533325195 -35.905738830566406 0
          -11.346677780151367 26.653888702392578 0 -46.45291519165039 -24.70581817626953 0
          1.4144026041030884 32.736053466796875 0 47.945213317871094 32.18380355834961 0
          -19.381071090698242 -44.23856735229492 0 -24.535022735595703 3.4273486137390137 0
          39.00337600708008 -15.391667366027832 0 -47.22358703613281 -33.57636260986328 0
          38.0508918762207 -29.48537826538086 0 -23.20319938659668 -0.8462719321250916 0
          -27.74374771118164 -0.08569458872079849 0 44.958553314208984 14.976956367492676 0
          26.455280303955078 -6.636595726013184 0 4.645997047424316 -44.68260955810547 0
          -17.06856346130371 -9.341712951660156 0 40.58232116699219 31.5750789642334 0
          -24.62594985961914 -36.41386795043945 0 -1.3116432428359985 -11.667491912841797 0
          21.114931106567383 -20.975126266479492 0 12.062093734741211 31.20359992980957 0
          -18.721303939819336 -11.911975860595703 0 -15.318037986755371 31.3435001373291 0
          17.220991134643555 -12.257473945617676 0 -4.32636022567749 -19.348773956298828 0
          40.72834777832031 -1.3235293626785278 0 25.641759872436523 -38.844879150390625 0
          -10.776641845703125 37.315818786621094 0 -13.214956283569336 41.84433364868164 0
          5.090023994445801 -36.30567932128906 0 -30.130460739135742 45.27341079711914 0
          49.694305419921875 -26.641376495361328 0 -48.41046905517578 -11.223044395446777 0
          28.10883903503418 -2.6466071605682373 0 4.055786609649658 -48.26228332519531 0
          39.86505889892578 -29.849689483642578 0 38.16566467285156 -5.670772552490234 0
          -34.731201171875 -25.763185501098633 0 29.26300048828125 -2.6878645420074463 0
          -40.807647705078125 14.52744197845459 0 13.847373962402344 8.068069458007812 0
          22.26898956298828 -14.694253921508789 0 18.409305572509766 21.251293182373047 0
          -33.672821044921875 -36.34545135498047 0 -4.967525482177734 -46.07705307006836 0
          29.86332130432129 -33.06746292114258 0 33.1849365234375 -16.86004638671875 0
          15.619433403015137 -7.958378791809082 0 27.97891616821289 -38.585941314697266 0