<?xml version="1.0"?>
<VTKFile type="PolyData" version="0.1" byte_order="LittleEndian" header_type="UInt32" compressor="vtkZLibDataCompressor">
  <PolyData>
    <Piece NumberOfPoints="154" NumberOfVerts="0" NumberOfLines="0" NumberOfStrips="0" NumberOfPolys="0">
      <PointData>
        <DataArray type="Int32" Name="id" format="ascii" RangeMin="0" RangeMax="153">
          0 1 2 3 4 5
          6 7 8 9 10 11
          12 13 14 15 16 17
          18 19 20 21 22 23
          24 25 26 27 28 29
          30 31 32 33 34 35
          36 37 38 39 40 41
          42 43 44 45 46 47
          48 49 50 51 52 53
          54 55 56 57 58 59
          60 61 62 63 64 65
          66 67 68 69 70 71
          72 73 74 75 76 77
          78 79 80 81 82 83
          84 85 86 87 88 89
          90 91 92 93 94 95
          96 97 98 99 100 101
          102 103 104 105 106 107
          108 109 110 111 112 113
          114 115 116 117 118 119
          120 121 122 123 124 125
          126 127 128 129 130 131
          132 133 134 135 136 137
          138 139 140 141 142 143
          144 145 146 147 148 149
          150 151 152 153
        </DataArray>
        <DataArray type="Float64" Name="director" NumberOfComponents="3" format="ascii" RangeMin="0.9999999999999999" RangeMax="1">
          -0.9486305137350372 -0.3163860749318773 0 0.07270072442119112 -0.9973538011501405 0
          -0.7572937823853927 -0.6530743657198815 0 -0.3025642948840271 0.9531289773484655 0
          -0.9127341935062865 0.40855390342576425 0 0.33103003317204904 0.9436202186992986 0
          0.9867507955510273 -0.1622432355428562 0 0.8677835966071029 0.49694227980686145 0
          0.9772830286935446 -0.21193839158484848 0 -0.48883375220524156 -0.8723769613561241 0
          -0.7973058230554092 0.6035755334023544 0 -0.9788784990806373 -0.20444286252554497 0
          0.21716772945049784 -0.9761343028934673 0 -0.3875510964067588 0.9218482237732626 0
          0.787630073150392 0.6161484138331512 0 0.9897131123501304 0.14306626171889072 0
          -0.7967668643152641 -0.6042868225679107 0 -0.9109554232590482 0.4125048082567381 0
          0.9342864200113531 -0.3565233307686462 0 -0.9217941571510919 -0.3876796768494682 0
          0.7762355307268832 0.6304430195006951 0 0.6871940890897223 -0.7264738700876631 0
          -0.8562187386927109 -0.5166134643149201 0 0.6426484863173706 0.7661611599617879 0
          -0.8910956822118186 -0.4538154747730113 0 -0.4833760676875906 0.8754128038741962 0
          0.8539884101667065 -0.5202920288654642 0 0.902095495303581 0.4315364612092317 0
          -0.9796762240504152 0.20058538339151388 0 -0.378185054576883 -0.925730017064738 0
          0.45246105391376623 0.8917841637365198 0 -0.990054315604965 0.14068565012816414 0
          -0.9966324672275789 0.08199832478696636 0 0.2419254584350036 0.9702948379544298 0
          0.8600895220325332 -0.5101431309836962 0 -0.5620434916754868 0.8271076794863091 0
          0.7256933919635195 0.6880182416625897 0 -0.7613327214048621 -0.648361386356611 0
          -0.8860453144934753 -0.46359864178420374 0 0.924704280345443 0.38068621450062556 0
          -0.5778120501399114 0.816169856533009 0 0.8175530402896078 -0.5758533027718247 0
          0.21942966119454987 -0.9756283225634879 0 -0.9959781282484819 -0.0895966966503265 0
          0.5432726143734993 0.8395563509805539 0 -0.8802901693075875 0.4744356835445865 0
          0.5008188589002509 -0.8655521189217034 0 -0.9486189381225452 0.3164207803467637 0
          -0.5361064256642377 -0.8441504015052739 0 -0.8802851927799122 0.4744449171109675 0
          0.8511875001761054 -0.5248617337394225 0 0.9845869475638793 -0.17489580522940734 0
          0.9937944752625865 0.11123192409358193 0 0.3937782687624525 0.9192054585621463 0
          -0.13114884467171775 0.9913626886973675 0 -0.9975462144738141 -0.07001107047434192 0
          -0.8949580145113425 -0.4461503695638005 0 0.19336846451399506 0.9811262084622446 0
          -0.03365327082865963 -0.9994335682588077 0 0.7560503870896031 -0.6545134163496278 0
          -0.9348697976437916 -0.3549907906600622 0 -0.4347629787267969 -0.9005449196617583 0
          -0.9179115491467666 -0.3967850651712876 0 0.8168999434726132 -0.5767794052793853 0
          0.44447320685579506 -0.8957921457499645 0 -0.9291617518839792 0.3696734218684036 0
          0.9290277549820887 -0.37001004104340224 0 -0.7280713273506553 -0.685501380224617 0
          -0.6552470064809524 0.7554146943882881 0 0.992951845796245 0.11851848771322586 0
          -0.3346099732763431 0.9423567083562386 0 0.0078583904601081 0.9999691223729743 0
          0.18545549877647738 0.982652663952817 0 -0.031713151352493446 0.9994970115169399 0
          0.2439446984612705 -0.9697891441404363 0 -0.9225946516240592 0.3857707982658626 0
          -0.9323300378793155 -0.3616084905916261 0 0.6260120847186099 -0.7798133557372943 0
          -0.2521167847936597 0.9676968155498433 0 0.11083076603328619 -0.9938392934979352 0
          -0.29466927223056916 0.9555992988711883 0 0.8711287202155197 -0.491054735050657 0
          -0.7096036497821365 -0.7046010645861039 0 -0.9567699935908057 -0.2908456280645277 0
          -0.9434565404255553 0.3314962387844583 0 0.3069855515956305 0.9517141751132672 0
          -0.9182052956933338 -0.39610482824716675 0 0.05827693746754604 -0.9983004550531888 0
          0.9994447748281776 -0.03331879452581213 0 0.23812167439352364 0.9712353310006925 0
          0.599754026411076 -0.8001844211203454 0 -0.4995321251057218 -0.866295363018504 0
          -0.9516806950632081 -0.30708932681551987 0 -0.006930664896234234 -0.9999759826536316 0
          0.25033945452353706 0.9681581262938704 0 0.9748576330329004 0.2228286232006359 0
          -0.9594763441340792 0.2817891854686797 0 0.9998381075998026 -0.017993292951693076 0
          -0.9234936315681894 -0.3836137542541941 0 0.9481576354944126 -0.31780040631447387 0
          -0.679050850595893 0.7340912356819105 0 0.791732189864365 -0.6108683487729389 0
          -0.6568307442129726 -0.754038045098941 0 0.988296286168372 0.15254655271687875 0
          -0.6973974145923402 0.7166846210990714 0 -0.9615654338699238 0.27457588456844734 0
          0.9656378543715545 0.25989138924693234 0 0.8292754873991536 -0.5588400182511059 0
          0.0027368691571504457 -0.9999962547665949 0 -0.9098714170207444 -0.4148903523687466 0
          0.45847701858310397 0.8887062638640216 0 0.260149382708709 -0.9655683811498167 0
          0.0006470378776040123 -0.9999997906709706 0 0.9985256334184558 -0.054282219982896514 0
          -0.07344500116093339 -0.9972992689280739 0 -0.23186398593936522 -0.9727482161506696 0
          -0.818941650893507 -0.5738767920310224 0 -0.8642715658243477 -0.5030255068160363 0
          -0.8225108298329205 0.5687494481822031 0 0.5479237013239697 -0.8365283124482047 0
          0.9930954677128876 0.11730895962423753 0 -0.2955461378205134 -0.955328467292469 0
          0.9213814761585618 -0.3886594594138546 0 -0.10189295455199027 0.994795368813439 0
          0.6393849300124878 -0.7688868000381631 0 -0.4538924221678006 -0.8910564904082384 0
          -0.9996465948879825 0.026583553728983723 0 0.778340473904426 -0.6278424218561801 0
          -0.22921969570927697 0.973374712584494 0 -0.8281063110014202 0.5605710817368473 0
          0.6757074064661994 0.7371699267107431 0 0.7239351974759507 0.6898679800189716 0
          0.915696967476453 0.4018694610870895 0 -0.8683561877498125 0.49594105617161033 0
          -0.7556059232065793 0.6550264794763133 0 -0.9989462062652119 0.045896372278654105 0
          0.8312278932195354 0.5559318209401335 0 0.822131865113227 0.5692971072870885 0
          -0.7880025441687623 -0.6156719827826811 0 0.3875639347221896 0.9218428263552602 0
          -0.029795036427841377 -0.9995560293471615 0 0.9979536099582116 -0.06394210171220224 0
          -0.7804413458214379 0.6252290026321737 0 0.8986679873152262 0.4386295117463032 0
          0.8947566782419824 -0.4465540132406981 0 -0.8943739407335706 -0.44732008018498753 0
          -0.003236416277379629 0.9999947627911255 0 -0.9733875263255193 -0.22916527571577355 0
          -0.5669195376723681 0.8237731713313735 0 0.8258979560786636 0.5638196219936709 0
          -0.026068226398196316 -0.9996601660426669 0 0.42458763738073957 0.9053868444943529 0
          0.21188434014071755 0.9772947489898494 0 -0.33973877813560743 -0.940519836383542 0
          <InformationKey name="L2_NORM_RANGE" location="vtkDataArray" length="2">
            <Value index="0">
              1
            </Value>
            <Value index="1">
              1
            </Value>
          </InformationKey>
        </DataArray>
        <DataArray type="Float64" Name="velocity" NumberOfComponents="3" format="ascii" RangeMin="2.98391528750295" RangeMax="65.61664053985334">
          20.472372037415383 -30.489259884928693 0 -7.778161120144524 43.605506408926914 0
          -35.778279556590725 14.318100471258902 0 -2.7267860528004704 -6.306708942777526 0
          -25.56803597993237 0.5919415230237348 0 40.69440930810454 -42.34960265147567 0
          21.390392053252754 11.720491675449018 0 -31.091580543867785 -10.301819378431787 0
          -22.233594277397 35.80993014386058 0 40.8936574712134 11.727908496204755 0
          -31.918129728714472 1.502371966558826 0 32.46317064138093 -14.067556233339687 0
          31.61170207931397 -20.66117562390716 0 -32.788218903188394 -0.7210412736466054 0
          -30.467523066969363 36.43074923190564 0 -29.58028331655805 11.627227611362315 0
          37.80505508071815 -10.753091333426255 0 44.65772551607054 -33.330173144632525 0
          47.18774005931614 6.396489460552942 0 9.836891189866492 -36.87781496106794 0
          6.677739541459459 5.438027088135769 0 -18.951003944933063 -37.93510690561732 0
          23.77908201111339 -25.727634747998636 0 32.285914726045576 -31.45240287607238 0
          -18.732306147503376 38.172541468590836 0 17.42129460906331 23.929755673071398 0
          -43.74567596165927 -36.843843838172035 0 -41.00470913383489 -49.1685554695042 0
          -4.3489588147394045 13.430332075080756 0 2.9762992276979077 -0.21305715242312573 0
          -16.420210149222868 -24.717665071237764 0 -26.63245586108499 -32.68369682188443 0
          9.59810303037343 22.68931438280859 0 37.757309281314306 20.71597266757422 0
          -26.523439665569285 -2.200425364398683 0 -48.17882370239545 24.733119867345934 0
          15.472358145094617 -42.19330576503555 0 -2.7230899171649696 49.647506705142575 0
          3.209752212846098 39.943600631846664 0 27.290092728339346 -29.624030405099575 0
          40.710862227344634 -12.518743865476708 0 34.808888796398136 -17.330075407408792 0
          -17.326333983387784 15.921061981020685 0 8.676498234140595 -45.101679767889145 0
          26.99656655139428 -0.8247828969564566 0 -1.181598492863479 -7.087342925864128 0
          -10.527228461045638 27.645380145270124 0 47.47543864880045 24.850515939083976 0
          13.45020038299144 -42.781974126121774 0 13.33632968921519 2.89206325620421 0
          -20.383234879262602 -17.467213088655853 0 13.111992425538233 49.45054225750374 0
          1.6047826830209004 22.445391370448775 0 -25.442525168919026 -16.766088433362327 0
          24.860911549332883 18.296648546241826 0 18.127137052491975 -42.11576276898946 0
          -4.106371249565804 19.81468592825003 0 -43.2115168522386 -43.085994704941484 0
          2.7042817825837204 -23.795120132132308 0 -1.6624837545658195 -36.91945356486498 0
          -40.55592314206473 -37.96183180819797 0 46.98372058379586 25.62816454897687 0
          -23.182362140209666 22.4905983535036 0 -8.42374893276238 -2.5281598168396826 0
          -44.45585735866184 11.374414308737222 0 -0.9380815156004232 40.44748670579848 0
          43.5214270198436 41.82766196839604 0 -19.617472876146607 29.010177679462174 0
          -27.377259211045168 -5.104813753149479 0 1.0108912986547693 -26.93680745999526 0
          21.18807799653547 48.4452609761332 0 15.521324819791857 -22.733301715898534 0
          -3.0984436752635744 -49.699879474370995 0 -5.357606698271908 47.09441502974741 0
          -19.533649987483585 -28.48909553641595 0 -25.241492794096537 30.645102659141713 0
          -1.3628901407151872 -9.249808436218693 0 -28.437070584076316 4.0252086974848424 0
          22.302423751473526 -21.630608392707323 0 4.286209731170565 25.592468486596516 0
          -16.80227135673981 30.176297340482108 0 35.70724318896097 -48.51082997011254 0
          38.494266527440914 9.308694076898924 0 -41.37827709570729 42.48759424258512 0
          41.371957205314274 48.07567751376408 0 40.00221093710812 44.971458396046486 0
          43.45219546574209 -49.16757290067578 0 27.77940311086799 -47.40411222574361 0
          8.787704962513757 14.978077069606684 0 -17.176354508003442 -38.89206379839693 0
          -37.572734230027905 47.39150589914381 0 3.322947059262674 16.230028184641725 0
          20.82576325094061 -43.12614201683975 0 -29.404442159877867 -6.6570323329381935 0
          -48.88074135310182 -43.07374742736768 0 -15.693819004659524 -18.776991949103287 0
          49.2742614956165 -23.093566379026992 0 35.70662412955289 -14.438908494432013 0
          24.676827977366614 34.48562696853686 0 -28.28613766609157 46.49521791482232 0
          21.219265309149932 48.266786794162286 0 25.989900495501132 -30.673962513745963 0
          -14.741048879365302 -30.369965831724773 0 33.206792723445574 45.25947670903301 0
          26.73700517552618 36.1968809297727 0 -4.433626259916984 -16.731616061562868 0
          33.82599634129042 5.430878965379037 0 -37.91344272052366 -28.781627030961573 0
          -0.8760744559602713 -9.034520229977083 0 25.951148963832622 -14.29357740625877 0
          27.17860558051683 48.15404052238152 0 34.61617221348607 33.462162550860555 0
          -13.28055184508198 -44.93740558320786 0 47.55616001461492 34.25892934866374 0
          36.946038841117556 -42.45015674570037 0 -46.76239316488481 11.393180618063838 0
          23.568028568935404 11.552780427737098 0 16.263007945057282 45.12644264060411 0
          -23.411248530157515 41.93857265065735 0 -38.160345232049345 -18.69342940760771 0
          37.21153998486223 -26.635630373860984 0 30.80584946405935 5.653176675427417 0
          44.35923105765637 0.370346282237378 0 16.64168251311186 -34.7034267378138 0
          47.322877480901255 13.376690736606477 0 -32.1350217035443 -42.58571958176201 0
          -0.5025219679409361 28.59799073613067 0 -3.5320261053794297 38.30316610148137 0
          14.736889949280638 40.32409694969634 0 -49.402638529229115 19.356180838194604 0
          8.508964450503598 -39.46387075781778 0 49.03198966734128 -27.000797471280585 0
          -16.70921662991016 18.938285128010065 0 46.14207459237997 -27.3400906744995 0
          42.424140585792586 37.62461911345025 0 -6.825547086494495 -2.911259141055119 0
          6.210247997996007 33.76154121673389 0 -35.16911208657487 13.927818279591207 0
          49.5593687100304 13.93941034113417 0 -6.0481675260535965 -47.161165000275155 0
          -41.68490984500472 3.0367185203014984 0 28.200151364646487 23.664522522360798 0
          -30.983903256438072 -23.817273645282434 0 -4.775523168997552 -3.9973115200368454 0
          17.36371431475763 -32.304692769073746 0 -31.21691646176371 -40.35131875297581 0
          -17.61253928181918 -32.96735050248542 0 -47.52659271635095 33.064298464373394 0
          -25.51716157275273 -35.79649925661745 0 -34.4558032257712 -19.698927528483058 0
          -46.64276824331557 -9.071061809886274 0 28.312364537561464 -5.662808823633235 0
          -48.25117889494449 -21.421563451189467 0 45.139670111270334 -32.86849758057289 0
          <InformationKey name="L2_NORM_RANGE" location="vtkDataArray" length="2">
            <Value index="0">
              2.9839152875
            </Value>
            <Value index="1">
              65.61664054
            </Value>
          </InformationKey>
        </DataArray>
        <DataArray type="Float64" Name="force" NumberOfComponents="3" format="ascii" RangeMin="0.49999999999999994" RangeMax="0.5">
          -0.4743152568675186 -0.15819303746593866 0 0.03635036221059556 -0.49867690057507025 0
          -0.37864689119269634 -0.32653718285994077 0 -0.15128214744201354 0.47656448867423273 0
          -0.45636709675314324 0.20427695171288213 0 0.16551501658602452 0.4718101093496493 0
          0.49337539777551365 -0.0811216177714281 0 0.43389179830355146 0.24847113990343073 0
          0.4886415143467723 -0.10596919579242424 0 -0.24441687610262078 -0.43618848067806204 0
          -0.3986529115277046 0.3017877667011772 0 -0.48943924954031864 -0.10222143126277249 0
          0.10858386472524892 -0.4880671514467336 0 -0.1937755482033794 0.4609241118866313 0
          0.393815036575196 0.3080742069165756 0 0.4948565561750652 0.07153313085944536 0
          -0.39838343215763206 -0.30214341128395533 0 -0.4554777116295241 0.20625240412836904 0
          0.46714321000567655 -0.1782616653843231 0 -0.46089707857554596 -0.1938398384247341 0
          0.3881177653634416 0.3152215097503476 0 0.3435970445448612 -0.36323693504383153 0
          -0.42810936934635546 -0.25830673215746003 0 0.3213242431586853 0.38308057998089395 0
          -0.4455478411059093 -0.22690773738650566 0 -0.2416880338437953 0.4377064019370981 0
          0.42699420508335323 -0.2601460144327321 0 0.4510477476517905 0.21576823060461586 0
          -0.4898381120252076 0.10029269169575694 0 -0.1890925272884415 -0.462865008532369 0
          0.22623052695688312 0.4458920818682599 0 -0.4950271578024825 0.07034282506408207 0
          -0.49831623361378946 0.04099916239348318 0 0.1209627292175018 0.4851474189772149 0
          0.4300447610162666 -0.2550715654918481 0 -0.2810217458377434 0.41355383974315457 0
          0.3628466959817597 0.34400912083129487 0 -0.38066636070243104 -0.3241806931783055 0
          -0.44302265724673767 -0.23179932089210187 0 0.4623521401727215 0.19034310725031278 0
          -0.2889060250699557 0.4080849282665045 0 0.4087765201448039 -0.28792665138591234 0
          0.10971483059727494 -0.48781416128174393 0 -0.49798906412424093 -0.04479834832516325 0
          0.27163630718674964 0.41977817549027696 0 -0.44014508465379376 0.23721784177229324 0
          0.25040942945012545 -0.4327760594608517 0 -0.4743094690612726 0.15821039017338184 0
          -0.26805321283211886 -0.42207520075263694 0 -0.4401425963899561 0.23722245855548374 0
          0.4255937500880527 -0.26243086686971123 0 0.49229347378193966 -0.08744790261470367 0
          0.49689723763129323 0.055615962046790965 0 0.19688913438122624 0.45960272928107315 0
          -0.06557442233585888 0.4956813443486838 0 -0.49877310723690704 -0.03500553523717096 0
          -0.44747900725567125 -0.22307518478190025 0 0.09668423225699753 0.4905631042311223 0
          -0.016826635414329816 -0.49971678412940385 0 0.3780251935448016 -0.3272567081748139 0
          -0.4674348988218958 -0.1774953953300311 0 -0.21738148936339846 -0.45027245983087916 0
          -0.4589557745733833 -0.1983925325856438 0 0.4084499717363066 -0.28838970263969266 0
          0.22223660342789753 -0.44789607287498223 0 -0.4645808759419896 0.1848367109342018 0
          0.46451387749104434 -0.18500502052170112 0 -0.36403566367532764 -0.3427506901123085 0
          -0.3276235032404762 0.37770734719414406 0 0.4964759228981225 0.05925924385661293 0
          -0.16730498663817156 0.4711783541781193 0 0.00392919523005405 0.49998456118648715 0
          0.09272774938823869 0.4913263319764085 0 -0.015856575676246723 0.49974850575846996 0
          0.12197234923063525 -0.48489457207021813 0 -0.4612973258120296 0.1928853991329313 0
          -0.4661650189396577 -0.18080424529581304 0 0.31300604235930496 -0.38990667786864713 0
          -0.12605839239682984 0.48384840777492166 0 0.055415383016643095 -0.4969196467489676 0
          -0.14733463611528458 0.47779964943559416 0 0.43556436010775984 -0.2455273675253285 0
          -0.35480182489106826 -0.35230053229305197 0 -0.47838499679540286 -0.14542281403226384 0
          -0.47172827021277763 0.16574811939222914 0 0.15349277579781526 0.4758570875566336 0
          -0.4591026478466669 -0.19805241412358338 0 0.02913846873377302 -0.4991502275265944 0
          0.4997223874140888 -0.016659397262906064 0 0.11906083719676182 0.48561766550034624 0
          0.299877013205538 -0.4000922105601727 0 -0.2497660625528609 -0.433147681509252 0
          -0.47584034753160404 -0.15354466340775993 0 -0.003465332448117117 -0.4999879913268158 0
          0.12516972726176853 0.4840790631469352 0 0.4874288165164502 0.11141431160031795 0
          -0.4797381720670396 0.14089459273433985 0 0.4999190537999013 -0.008996646475846538 0
          -0.4617468157840947 -0.19180687712709704 0 0.4740788177472063 -0.15890020315723694 0
          -0.3395254252979465 0.36704561784095524 0 0.3958660949321825 -0.30543417438646947 0
          -0.3284153721064863 -0.3770190225494705 0 0.494148143084186 0.07627327635843938 0
          -0.3486987072961701 0.3583423105495357 0 -0.4807827169349619 0.13728794228422367 0
          0.48281892718577724 0.12994569462346617 0 0.4146377436995768 -0.2794200091255529 0
          0.0013684345785752229 -0.49999812738329746 0 -0.4549357085103722 -0.2074451761843733 0
          0.22923850929155198 0.4443531319320108 0 0.1300746913543545 -0.48278419057490835 0
          0.00032351893880200615 -0.4999998953354853 0 0.4992628167092279 -0.027141109991448257 0
          -0.036722500580466694 -0.49864963446403693 0 -0.11593199296968261 -0.4863741080753348 0
          -0.4094708254467535 -0.2869383960155112 0 -0.43213578291217386 -0.25151275340801815 0
          -0.4112554149164602 0.28437472409110154 0 0.27396185066198486 -0.41826415622410235 0
          0.4965477338564438 0.058654479812118764 0 -0.1477730689102567 -0.4776642336462345 0
          0.4606907380792809 -0.1943297297069273 0 -0.05094647727599513 0.4973976844067195 0
          0.3196924650062439 -0.38444340001908156 0 -0.2269462110839003 -0.4455282452041192 0
          -0.49982329744399123 0.013291776864491862 0 0.389170236952213 -0.31392121092809006 0
          -0.11460984785463849 0.486687356292247 0 -0.4140531555007101 0.28028554086842367 0
          0.3378537032330997 0.36858496335537155 0 0.36196759873797535 0.3449339900094858 0
          0.4578484837382265 0.20093473054354474 0 -0.43417809387490625 0.24797052808580516 0
          -0.37780296160328963 0.32751323973815666 0 -0.49947310313260596 0.022948186139327052 0
          0.4156139466097677 0.27796591047006675 0 0.4110659325566135 0.28464855364354424 0
          -0.3940012720843811 -0.30783599139134055 0 0.1937819673610948 0.4609214131776301 0
          -0.014897518213920689 -0.49977801467358074 0 0.4989768049791058 -0.03197105085610112 0
          -0.39022067291071894 0.31261450131608687 0 0.4493339936576131 0.2193147558731516 0
          0.4473783391209912 -0.22327700662034905 0 -0.4471869703667853 -0.22366004009249377 0
          -0.0016182081386898145 0.49999738139556277 0 -0.48669376316275964 -0.11458263785788678 0
          -0.28345976883618407 0.41188658566568676 0 0.4129489780393318 0.28190981099683543 0
          -0.013034113199098158 -0.49983008302133347 0 0.21229381869036978 0.45269342224717646 0
          0.10594217007035878 0.4886473744949247 0 -0.16986938906780372 -0.470259918191771 0
          <InformationKey name="L2_NORM_RANGE" location="vtkDataArray" length="2">
            <Value index="0">
              0.5
            </Value>
            <Value index="1">
              0.5
            </Value>
          </InformationKey>
        </DataArray>
        <DataArray type="Float64" Name="radius" format="ascii" RangeMin="1" RangeMax="1">
          1 1 1 1 1 1
          1 1 1 1 1 1
          1 1 1 1 1 1
          1 1 1 1 1 1
          1 1 1 1 1 1
          1 1 1 1 1 1
          1 1 1 1 1 1
          1 1 1 1 1 1
          1 1 1 1 1 1
          1 1 1 1 1 1
          1 1 1 1 1 1
          1 1 1 1 1 1
          1 1 1 1 1 1
          1 1 1 1 1 1
          1 1 1 1 1 1
          1 1 1 1 1 1
          1 1 1 1 1 1
          1 1 1 1 1 1
          1 1 1 1 1 1
          1 1 1 1 1 1
          1 1 1 1 1 1
          1 1 1 1 1 1
          1 1 1 1 1 1
          1 1 1 1 1 1
          1 1 1 1 1 1
          1 1 1 1
        </DataArray>
      </PointData>
      <CellData>
      </CellData>
      <Points>
        <DataArray type="Float32" Name="Points" NumberOfComponents="3" format="ascii" RangeMin="3.0280185121834213" RangeMax="67.2629440098597">
          -37.554203033447266 33.87760925292969 0 47.12245178222656 -27.770734786987305 0
          -19.278181076049805 4.0070343017578125 0 -31.216793060302734 49.49333953857422 0
          48.56318283081055 46.53945541381836 0 22.595129013061523 48.6444206237793 0
          -39.560279846191406 29.730112075805664 0 -20.210159301757812 -50.45033264160156 0
          -38.765724182128906 13.73328685760498 0 37.47732162475586 0.9280497431755066 0
          30.02960968017578 -13.307031631469727 0 -28.503864288330078 17.940990447998047 0
          -10.91333293914795 23.8106689453125 0 -3.1378355026245117 -7.38658332824707 0
          -32.37943649291992 -19.826862335205078 0 29.286115646362305 -18.779674530029297 0
          36.92947769165039 -35.70562744140625 0 49.2354736328125 31.566089630126953 0
          -37.704402923583984 26.21881675720215 0 -1.4971063137054443 15.44773006439209 0
          -38.30832290649414 -28.977731704711914 0 -45.11309814453125 -46.09410858154297 0
          -9.018229484558105 -4.263275623321533 0 -1.0517066717147827 30.068450927734375 0
          41.75113296508789 30.59833335876465 0 21.341228485107422 -49.401527404785156 0
          20.325950622558594 14.858820915222168 0 -4.333474636077881 27.045700073242188 0
          7.942553997039795 37.9740104675293 0 30.84971046447754 -47.6210823059082 0
          32.71943283081055 32.55002212524414 0 43.738643646240234 -8.797464370727539 0
          -7.578341007232666 7.78696870803833 0 -34.2282600402832 26.670032501220703 0
          -26.386938095092773 31.238866806030273 0 49.557098388671875 -17.068437576293945 0
          -20.57961082458496 -48.71805191040039 0 -28.95467185974121 40.46992492675781 0
          34.81745147705078 45.75679016113281 0 27.78746223449707 49.067020416259766 0
          -43.228851318359375 29.682231903076172 0 9.082093238830566 23.713571548461914 0
          19.240877151489258 17.818233489990234 0 -10.554571151733398 5.74302339553833 0
          -29.364011764526367 2.3318753242492676 0 -9.605724334716797 -14.664558410644531 0
          9.708929061889648 -13.750765800476074 0 47.02092361450195 -34.57875061035156 0
          -10.755703926086426 -11.29808235168457 0 22.227848052978516 -11.708536148071289 0
          42.809661865234375 -6.293963432312012 0 35.00590896606445 12.001751899719238 0
          -37.345176696777344 -2.436997890472412 0 -15.868626594543457 3.110719919204712 0
          21.479713439941406 48.74903869628906 0 21.92007064819336 41.99365997314453 0
          0.833289384841919 5.9450578689575195 0 0.2991020977497101 -3.891472816467285 0
          4.523443222045898 -5.426583766937256 0 35.123783111572266 10.800187110900879 0
          0.4999704658985138 47.35400390625 0 -46.962032318115234 47.81488800048828 0
          -13.229372024536133 17.810516357421875 0 -15.319926261901855 35.516136169433594 0
          -45.55705261230469 15.705042839050293 0 24.75982666015625 -35.97900390625 0
          48.212650299072266 -40.06621170043945 0 -22.323148727416992 30.15319061279297 0
          -42.31122589111328 12.851850509643555 0 -49.27179718017578 18.55698585510254 0
          3.160011053085327 -6.056312561035156 0 -29.78701400756836 -35.84933853149414 0
          -11.233625411987305 26.589719772338867 0 -46.5696907043457 -24.611801147460938 0
          1.49947988986969 32.797210693359375 0 48 32.08609390258789 0
          -19.45021629333496 -44.08092498779297 0 -24.454439163208008 3.467475414276123 0
          39.216064453125 -15.351922988891602 0 -47.218563079833984 -33.44438934326172 0
          38.003074645996094 -29.356889724731445 0 -23.08959197998047 -1.0162698030471802 0
          -27.966773986816406 -0.08182621002197266 0 44.95549392700195 15.13792896270752 0
          26.537906646728516 -6.623781681060791 0 4.52529239654541 -44.54716873168945 0
          -17.249895095825195 -9.17233657836914 0 40.405029296875 31.36336898803711 0
          -24.673032760620117 -36.476741790771484 0 -1.4502501487731934 -11.741264343261719 0
          21.134403228759766 -20.97062110900879 0 12.174792289733887 31.313751220703125 0
          -18.759458541870117 -11.84400463104248 0 -15.251984596252441 31.375770568847656 0
          17.25944709777832 -12.23330020904541 0 -4.251236438751221 -19.541015625 0
          40.83610916137695 -1.3263174295425415 0 25.586206436157227 -38.986595153808594 0
          -10.626303672790527 37.36905288696289 0 -13.112241744995117 41.88226318359375 0
          5.205971717834473 -36.19225311279297 0 -30.133554458618164 45.06193161010742 0
          49.70607376098633 -26.59379768371582 0 -48.40768814086914 -11.304530143737793 0
          28.218578338623047 -2.622451066970825 0 4.006553649902344 -48.36930847167969 0
          39.772613525390625 -29.802541732788086 0 38.1595344543457 -5.773947238922119 0
          -34.81136703491211 -25.868026733398438 0 29.30938148498535 -2.7892489433288574 0
          -41.10819625854492 14.542773246765137 0 13.960536003112793 7.950615406036377 0
          22.212675094604492 -14.601604461669922 0 18.575925827026367 21.047243118286133 0
          -33.67500305175781 -36.41814422607422 0 -4.980563163757324 -45.94944381713867 0
          29.785486221313477 -33.014705657958984 0 32.99250030517578 -16.783735275268555 0
          15.758378982543945 -8.050115585327148 0 27.985595703125 -38.673892974853516 0