<?xml version="1.0"?>
<VTKFile type="PolyData" version="0.1" byte_order="LittleEndian" header_type="UInt32" compressor="vtkZLibDataCompressor">
  <PolyData>
    <Piece NumberOfPoints="154" NumberOfVerts="0" NumberOfLines="0" NumberOfStrips="0" NumberOfPolys="0">
      <PointData>
        <DataArray type="Int32" Name="id" format="ascii" RangeMin="0" RangeMax="153">
          0 1 2 3 4 5
          6 7 8 9 10 11
          12 13 14 15 16 17
          18 19 20 21 22 23
          24 25 26 27 28 29
          30 31 32 33 34 35
          36 37 38 39 40 41
          42 43 44 45 46 47
          48 49 50 51 52 53
          54 55 56 57 58 59
          60 61 62 63 64 65
          66 67 68 69 70 71
          72 73 74 75 76 77
          78 79 80 81 82 83
          84 85 86 87 88 89
          90 91 92 93 94 95
          96 97 98 99 100 101
          102 103 104 105 106 107
          108 109 110 111 112 113
          114 115 116 117 118 119
          120 121 122 123 124 125
          126 127 128 129 130 131
          132 133 134 135 136 137
          138 139 140 141 142 143
          144 145 146 147 148 149
          150 151 152 153
        </DataArray>
        <DataArray type="Float64" Name="director" NumberOfComponents="3" format="ascii" RangeMin="0.9999999999999999" RangeMax="1">
          -0.8923986187525906 -0.45124794209887353 0 -0.11472871350603359 -0.9933968604224852 0
          -0.3554395577282979 -0.934699267573219 0 0.045720605364769726 0.9989542663430989 0
          -0.24589571794611853 0.9692962890137169 0 0.9211974872916525 0.3890953474503976 0
          0.9919862091246945 -0.12634619466536318 0 0.9432412182849677 0.3321084222483524 0
          0.9796362385238653 0.20078057717521502 0 -0.4260342332099042 -0.9047070421596424 0
          -0.8287214968800427 0.5596612194970289 0 -0.981800635336358 -0.1899144872123342 0
          0.2400594252750862 -0.9707581945760723 0 -0.20037790832124722 0.9797186809777599 0
          0.825209943861294 0.5648261224062144 0 0.9489071228086925 0.3155554979443855 0
          -0.6515988836003391 -0.758563705229028 0 -0.9567416837330253 0.2909387403005928 0
          0.8682419977364558 -0.49614094103047807 0 -0.9997807449980277 0.020939482591236076 0
          0.8201971897100381 0.5720809121022619 0 0.8821526039887272 -0.47096367511296233 0
          -0.5911012511976583 -0.8065973659965441 0 0.6804291605470352 0.7328138627763922 0
          -0.9678209467635205 -0.25163985178378007 0 -0.6401007694132043 0.7682909637608814 0
          0.9954933662831907 -0.09483120628865256 0 0.9819563766794368 -0.18910757335070405 0
          -0.9323597863064496 -0.36153178128428987 0 -0.09952796078469106 -0.9950347657353692 0
          0.7006750685749281 0.7134805170973625 0 -0.9987726787786885 0.04952914420058939 0
          -0.974036454915372 0.22639122000619727 0 0.2981533724509953 0.9545179759942177 0
          0.9414269475070945 -0.33721699617230777 0 0.2926893785258134 0.9562075756331222 0
          0.6526791281736327 0.7576344472412185 0 -0.15198016824890792 -0.9883835431951675 0
          -0.9968565322553791 0.07922786189075397 0 0.9243494162065913 -0.38154705706968023 0
          -0.14813174726789335 0.9889676362001746 0 0.5328584441261411 -0.8462043952399846 0
          0.6988099222909133 -0.7153074111930952 0 -0.9966790945051422 -0.08142961731710177 0
          0.2906115688116114 0.9568411132851964 0 -0.6696429793925478 0.7426831626947469 0
          0.7883360769819221 -0.6152448534760392 0 -0.4843403881361107 0.874879642248099 0
          -0.2246639524812358 -0.9744363029236488 0 -0.9994707662487284 0.032529792716516834 0
          0.6470370089253035 -0.7624585949945064 0 0.7500396834155283 -0.6613928282812978 0
          0.8793945415720062 -0.47609373053355886 0 0.3630755927238263 0.931759686812132 0
          -0.5119734886839579 0.859001249640987 0 -0.9614060059982852 0.27513358869906307 0
          -0.9760191945170197 -0.21768447793618212 0 0.5195587704001126 0.854434716113714 0
          -0.39115600904725606 -0.9203243866084517 0 0.668815569970383 -0.7434283646493397 0
          -0.7045022877072844 -0.7097017166494687 0 -0.6480875541510169 -0.7615658357322449 0
          -0.656735189323864 -0.7541212708203824 0 0.8586411797987937 -0.5125771399055322 0
          0.7627027498145342 -0.6467491905100059 0 -0.9840248102525739 -0.17803138152411746 0
          0.9713856287213843 -0.23750781105799618 0 -0.9265521980725856 -0.37616621890709445 0
          -0.781798054176503 0.6235317173054098 0 0.984846782475951 -0.1734266849327599 0
          -0.160314477038218 0.9870659899175752 0 -0.11204421973105848 0.9937032217039745 0
          -0.043351661904120126 0.9990598747873677 0 0.4612197753743089 0.887285928437768 0
          -0.17400176130162145 -0.9847453412247927 0 -0.8896481020967983 -0.456646750164243 0
          -0.8720640365627057 -0.48939178184146076 0 0.737275274048101 -0.6755924587184922 0
          -0.5502481961312317 0.8350011512892216 0 0.42641580345742797 -0.9045272591590351 0
          -0.8198407037280961 0.5725916699626533 0 0.8884318190753949 -0.4590086086931103 0
          -0.5136043586495418 -0.8580271340559067 0 -0.9888244055408247 -0.14908485840900976 0
          -0.9737660852909023 -0.22755133736638708 0 0.19200434809987638 0.9813940749315443 0
          -0.9078307356510268 -0.41933680426038866 0 0.43079265801706235 -0.9024509326265857 0
          0.7076720083468019 -0.7065411018492865 0 -0.1860183960063104 0.9825462616830006 0
          -0.42201008591160655 -0.906591135732574 0 -0.8878791796816675 -0.4600766917458535 0
          -0.9212786017465976 -0.3889032501327727 0 0.35419518277334 -0.935171520364131 0
          0.29585382892090334 0.9552332238321911 0 0.9963202072344147 0.08570906986062106 0
          -0.9051514788848553 0.42508916743732655 0 0.8518728631789777 -0.523748627663358 0
          -0.89837463056611 -0.4392300344411859 0 0.6889845600686035 -0.7247760178062411 0
          -0.5290643788688463 0.8485816890624743 0 0.6060400858816325 -0.7954341043132256 0
          -0.6141760475201431 -0.7891690456755985 0 0.9203571645459779 -0.391078879088206 0
          -0.7442189529577045 0.6679357379707557 0 -0.990552084443134 0.1371370409676474 0
          0.9703210918256221 0.2418201372060084 0 0.6860938088487113 -0.7275130826723792 0
          0.5248685191259221 -0.8511833161138448 0 -0.9761349836230967 -0.21716466965677608 0
          -0.507884798807432 0.8614250002991174 0 -0.301284480211591 -0.9535343003708002 0
          0.3853348919419751 -0.92277679915138 0 0.8905477019184412 -0.45488986645976526 0
          0.292392439231705 -0.9562984165416848 0 0.14631956758916354 -0.9892373750220521 0
          -0.5408650422340064 -0.8411093900850272 0 -0.763294794929372 -0.6460503510050342 0
          -0.9277475331474218 0.37320840657583465 0 0.29969101638393014 -0.9540363172850218 0
          0.892679370499335 0.4506922913528819 0 0.496197072466134 -0.8682099200516187 0
          0.2274415845710631 -0.9737917259906268 0 -0.18153835811820984 0.9833838642827859 0
          0.626683406355685 -0.7792739622228086 0 -0.23437334131301346 -0.9721466642856795 0
          -0.9854326289909372 -0.1700662627331179 0 0.8085524890312422 -0.588424058380844 0
          -0.8228542982008814 0.5682524121658745 0 -0.9417569616059078 0.3362942539901756 0
          0.2632812508446792 0.9647191212750275 0 0.5683475961065159 0.822788557285494 0
          0.8718715103743676 0.4897346928669838 0 -0.8947484501056582 0.44657049951102057 0
          -0.6936144219714806 0.7203464677730911 0 -0.9652225922010579 -0.2614294312136077 0
          0.4502597831916613 0.8928976019903951 0 0.8611702774032078 0.5083165876865342 0
          -0.8789698202180861 -0.47687740053999766 0 0.7061387187752249 0.7080735200856503 0
          0.41892519287956564 -0.9080207501873615 0 0.9999921429444427 0.003964095026763173 0
          -0.9527487107728226 0.3037595992239987 0 0.934057961604387 0.3571214420382196 0
          0.9944234871320878 0.10546055300470555 0 -0.769036368241174 -0.6392050252637453 0
          0.29754895379329904 0.9547065622988632 0 -0.9341075174485919 0.3569918008106469 0
          -0.8412195171566224 0.5406937432177102 0 0.5112216820282093 0.859448888430399 0
          0.47221632437745364 -0.8814826957980784 0 0.40075634477272354 0.9161846714087755 0
          0.5866697230462627 0.8098262999315479 0 0.10283473299921289 -0.9946984556582867 0
          <InformationKey name="L2_NORM_RANGE" location="vtkDataArray" length="2">
            <Value index="0">
              1
            </Value>
            <Value index="1">
              1
            </Value>
          </InformationKey>
        </DataArray>
        <DataArray type="Float64" Name="velocity" NumberOfComponents="3" format="ascii" RangeMin="2.98391528750295" RangeMax="65.61664053985334">
          20.472372037415383 -30.489259884928693 0 -7.778161120144524 43.605506408926914 0
          -35.778279556590725 14.318100471258902 0 -2.7267860528004704 -6.306708942777526 0
          -25.56803597993237 0.5919415230237348 0 40.69440930810454 -42.34960265147567 0
          21.390392053252754 11.720491675449018 0 -31.091580543867785 -10.301819378431787 0
          -22.233594277397 35.80993014386058 0 40.8936574712134 11.727908496204755 0
          -31.918129728714472 1.502371966558826 0 32.46317064138093 -14.067556233339687 0
          31.61170207931397 -20.66117562390716 0 -32.788218903188394 -0.7210412736466054 0
          -30.467523066969363 36.43074923190564 0 -29.58028331655805 11.627227611362315 0
          37.80505508071815 -10.753091333426255 0 44.65772551607054 -33.330173144632525 0
          47.18774005931614 6.396489460552942 0 9.836891189866492 -36.87781496106794 0
          6.677739541459459 5.438027088135769 0 -18.951003944933063 -37.93510690561732 0
          23.77908201111339 -25.727634747998636 0 32.285914726045576 -31.45240287607238 0
          -18.732306147503376 38.172541468590836 0 17.42129460906331 23.929755673071398 0
          -43.74567596165927 -36.843843838172035 0 -41.00470913383489 -49.1685554695042 0
          -4.3489588147394045 13.430332075080756 0 2.9762992276979077 -0.21305715242312573 0
          -16.420210149222868 -24.717665071237764 0 -26.63245586108499 -32.68369682188443 0
          9.59810303037343 22.68931438280859 0 37.757309281314306 20.71597266757422 0
          -26.523439665569285 -2.200425364398683 0 -48.17882370239545 24.733119867345934 0
          15.472358145094617 -42.19330576503555 0 -2.7230899171649696 49.647506705142575 0
          3.209752212846098 39.943600631846664 0 27.290092728339346 -29.624030405099575 0
          40.710862227344634 -12.518743865476708 0 34.808888796398136 -17.330075407408792 0
          -17.326333983387784 15.921061981020685 0 8.676498234140595 -45.101679767889145 0
          26.99656655139428 -0.8247828969564566 0 -1.181598492863479 -7.087342925864128 0
          -10.527228461045638 27.645380145270124 0 47.47543864880045 24.850515939083976 0
          13.45020038299144 -42.781974126121774 0 13.33632968921519 2.89206325620421 0
          -20.383234879262602 -17.467213088655853 0 13.111992425538233 49.45054225750374 0
          1.6047826830209004 22.445391370448775 0 -25.442525168919026 -16.766088433362327 0
          24.860911549332883 18.296648546241826 0 18.127137052491975 -42.11576276898946 0
          -4.106371249565804 19.81468592825003 0 -43.2115168522386 -43.085994704941484 0
          2.7042817825837204 -23.795120132132308 0 -1.6624837545658195 -36.91945356486498 0
          -40.55592314206473 -37.96183180819797 0 46.98372058379586 25.62816454897687 0
          -23.182362140209666 22.4905983535036 0 -8.42374893276238 -2.5281598168396826 0
          -44.45585735866184 11.374414308737222 0 -0.9380815156004232 40.44748670579848 0
          43.5214270198436 41.82766196839604 0 -19.617472876146607 29.010177679462174 0
          -27.377259211045168 -5.104813753149479 0 1.0108912986547693 -26.93680745999526 0
          21.18807799653547 48.4452609761332 0 15.521324819791857 -22.733301715898534 0
          -3.0984436752635744 -49.699879474370995 0 -5.357606698271908 47.09441502974741 0
          -19.533649987483585 -28.48909553641595 0 -25.241492794096537 30.645102659141713 0
          -1.3628901407151872 -9.249808436218693 0 -28.437070584076316 4.0252086974848424 0
          22.302423751473526 -21.630608392707323 0 4.286209731170565 25.592468486596516 0
          -16.80227135673981 30.176297340482108 0 35.70724318896097 -48.51082997011254 0
          38.494266527440914 9.308694076898924 0 -41.37827709570729 42.48759424258512 0
          41.371957205314274 48.07567751376408 0 40.00221093710812 44.971458396046486 0
          43.45219546574209 -49.16757290067578 0 27.77940311086799 -47.40411222574361 0
          8.787704962513757 14.978077069606684 0 -17.176354508003442 -38.89206379839693 0
          -37.572734230027905 47.39150589914381 0 3.322947059262674 16.230028184641725 0
          20.82576325094061 -43.12614201683975 0 -29.404442159877867 -6.6570323329381935 0
          -48.88074135310182 -43.07374742736768 0 -15.693819004659524 -18.776991949103287 0
          49.2742614956165 -23.093566379026992 0 35.70662412955289 -14.438908494432013 0
          24.676827977366614 34.48562696853686 0 -28.28613766609157 46.49521791482232 0
          21.219265309149932 48.266786794162286 0 25.989900495501132 -30.673962513745963 0
          -14.741048879365302 -30.369965831724773 0 33.206792723445574 45.25947670903301 0
          26.73700517552618 36.1968809297727 0 -4.433626259916984 -16.731616061562868 0
          33.82599634129042 5.430878965379037 0 -37.91344272052366 -28.781627030961573 0
          -0.8760744559602713 -9.034520229977083 0 25.951148963832622 -14.29357740625877 0
          27.17860558051683 48.15404052238152 0 34.61617221348607 33.462162550860555 0
          -13.28055184508198 -44.93740558320786 0 47.55616001461492 34.25892934866374 0
          36.946038841117556 -42.45015674570037 0 -46.76239316488481 11.393180618063838 0
          23.568028568935404 11.552780427737098 0 16.263007945057282 45.12644264060411 0
          -23.411248530157515 41.93857265065735 0 -38.160345232049345 -18.69342940760771 0
          37.21153998486223 -26.635630373860984 0 30.80584946405935 5.653176675427417 0
          44.35923105765637 0.370346282237378 0 16.64168251311186 -34.7034267378138 0
          47.322877480901255 13.376690736606477 0 -32.1350217035443 -42.58571958176201 0
          -0.5025219679409361 28.59799073613067 0 -3.5320261053794297 38.30316610148137 0
          14.736889949280638 40.32409694969634 0 -49.402638529229115 19.356180838194604 0
          8.508964450503598 -39.46387075781778 0 49.03198966734128 -27.000797471280585 0
          -16.70921662991016 18.938285128010065 0 46.14207459237997 -27.3400906744995 0
          42.424140585792586 37.62461911345025 0 -6.825547086494495 -2.911259141055119 0
          6.210247997996007 33.76154121673389 0 -35.16911208657487 13.927818279591207 0
          49.5593687100304 13.93941034113417 0 -6.0481675260535965 -47.161165000275155 0
          -41.68490984500472 3.0367185203014984 0 28.200151364646487 23.664522522360798 0
          -30.983903256438072 -23.817273645282434 0 -4.775523168997552 -3.9973115200368454 0
          17.36371431475763 -32.304692769073746 0 -31.21691646176371 -40.35131875297581 0
          -17.61253928181918 -32.96735050248542 0 -47.52659271635095 33.064298464373394 0
          -25.51716157275273 -35.79649925661745 0 -34.4558032257712 -19.698927528483058 0
          -46.64276824331557 -9.071061809886274 0 28.312364537561464 -5.662808823633235 0
          -48.25117889494449 -21.421563451189467 0 45.139670111270334 -32.86849758057289 0
          <InformationKey name="L2_NORM_RANGE" location="vtkDataArray" length="2">
            <Value index="0">
              2.9839152875
            </Value>
            <Value index="1">
              65.61664054
            </Value>
          </InformationKey>
        </DataArray>
        <DataArray type="Float64" Name="force" NumberOfComponents="3" format="ascii" RangeMin="0.49999999999999994" RangeMax="0.5">
          -0.4461993093762953 -0.22562397104943677 0 -0.05736435675301679 -0.4966984302112426 0
          -0.17771977886414894 -0.4673496337866095 0 0.022860302682384863 0.49947713317154946 0
          -0.12294785897305927 0.48464814450685845 0 0.46059874364582626 0.1945476737251988 0
          0.49599310456234724 -0.06317309733268159 0 0.4716206091424838 0.1660542111241762 0
          0.48981811926193264 0.10039028858760751 0 -0.2130171166049521 -0.4523535210798212 0
          -0.41436074844002135 0.2798306097485144 0 -0.490900317668179 -0.0949572436061671 0
          0.1200297126375431 -0.48537909728803613 0 -0.10018895416062361 0.48985934048887997 0
          0.412604971930647 0.2824130612031072 0 0.47445356140434625 0.15777774897219274 0
          -0.32579944180016956 -0.379281852614514 0 -0.47837084186651263 0.1454693701502964 0
          0.4341209988682279 -0.24807047051523903 0 -0.49989037249901386 0.010469741295618038 0
          0.41009859485501904 0.28604045605113093 0 0.4410763019943636 -0.23548183755648117 0
          -0.29555062559882916 -0.40329868299827204 0 0.3402145802735176 0.3664069313881961 0
          -0.48391047338176024 -0.12581992589189003 0 -0.32005038470660213 0.3841454818804407 0
          0.49774668314159537 -0.04741560314432628 0 0.4909781883397184 -0.09455378667535203 0
          -0.4661798931532248 -0.18076589064214493 0 -0.04976398039234553 -0.4975173828676846 0
          0.35033753428746406 0.35674025854868124 0 -0.49938633938934424 0.024764572100294695 0
          -0.487018227457686 0.11319561000309863 0 0.14907668622549766 0.47725898799710886 0
          0.4707134737535473 -0.16860849808615389 0 0.1463446892629067 0.4781037878165611 0
          0.32633956408681636 0.37881722362060927 0 -0.07599008412445396 -0.49419177159758376 0
          -0.49842826612768953 0.039613930945376984 0 0.46217470810329564 -0.19077352853484011 0
          -0.07406587363394668 0.4944838181000873 0 0.26642922206307057 -0.4231021976199923 0
          0.34940496114545666 -0.3576537055965476 0 -0.4983395472525711 -0.040714808658550886 0
          0.1453057844058057 0.4784205566425982 0 -0.3348214896962739 0.37134158134737344 0
          0.39416803849096105 -0.3076224267380196 0 -0.24217019406805534 0.4374398211240495 0
          -0.1123319762406179 -0.4872181514618244 0 -0.4997353831243642 0.016264896358258417 0
          0.32351850446265173 -0.3812292974972532 0 0.37501984170776415 -0.3306964141406489 0
          0.4396972707860031 -0.23804686526677943 0 0.18153779636191314 0.465879843406066 0
          -0.25598674434197893 0.4295006248204935 0 -0.4807030029991426 0.13756679434953153 0
          -0.48800959725850984 -0.10884223896809106 0 0.2597793852000563 0.427217358056857 0
          -0.19557800452362803 -0.46016219330422586 0 0.3344077849851915 -0.37171418232466985 0
          -0.3522511438536422 -0.35485085832473434 0 -0.32404377707550847 -0.38078291786612245 0
          -0.328367594661932 -0.3770606354101912 0 0.42932058989939686 -0.2562885699527661 0
          0.3813513749072671 -0.32337459525500295 0 -0.49201240512628697 -0.08901569076205873 0
          0.48569281436069217 -0.11875390552899809 0 -0.4632760990362928 -0.18808310945354723 0
          -0.3908990270882515 0.3117658586527049 0 0.4924233912379755 -0.08671334246637995 0
          -0.080157238519109 0.4935329949587876 0 -0.05602210986552924 0.49685161085198726 0
          -0.021675830952060063 0.49952993739368384 0 0.23060988768715446 0.443642964218884 0
          -0.08700088065081073 -0.49237267061239637 0 -0.44482405104839917 -0.2283233750821215 0
          -0.43603201828135285 -0.24469589092073038 0 0.3686376370240505 -0.3377962293592461 0
          -0.27512409806561583 0.4175005756446108 0 0.21320790172871398 -0.45226362957951755 0
          -0.40992035186404807 0.28629583498132666 0 0.44421590953769746 -0.22950430434655514 0
          -0.2568021793247709 -0.42901356702795335 0 -0.49441220277041237 -0.07454242920450488 0
          -0.4868830426454511 -0.11377566868319354 0 0.09600217404993819 0.49069703746577215 0
          -0.4539153678255134 -0.20966840213019433 0 0.21539632900853117 -0.45122546631329286 0
          0.35383600417340094 -0.35327055092464327 0 -0.0930091980031552 0.4912731308415003 0
          -0.21100504295580327 -0.453295567866287 0 -0.44393958984083376 -0.23003834587292676 0
          -0.4606393008732988 -0.19445162506638636 0 0.17709759138667 -0.4675857601820655 0
          0.14792691446045167 0.47761661191609556 0 0.49816010361720736 0.04285453493031053 0
          -0.4525757394424276 0.21254458371866328 0 0.42593643158948885 -0.261874313831679 0
          -0.449187315283055 -0.21961501722059296 0 0.34449228003430177 -0.36238800890312056 0
          -0.26453218943442314 0.42429084453123717 0 0.30302004294081625 -0.3977170521566128 0
          -0.30708802376007155 -0.39458452283779927 0 0.46017858227298897 -0.195539439544103 0
          -0.37210947647885223 0.33396786898537784 0 -0.495276042221567 0.0685685204838237 0
          0.48516054591281105 0.1209100686030042 0 0.34304690442435565 -0.3637565413361896 0
          0.26243425956296107 -0.4255916580569224 0 -0.48806749181154835 -0.10858233482838804 0
          -0.253942399403716 0.4307125001495587 0 -0.1506422401057955 -0.4767671501854001 0
          0.19266744597098756 -0.46138839957569 0 0.4452738509592206 -0.22744493322988263 0
          0.1461962196158525 -0.4781492082708424 0 0.07315978379458177 -0.49461868751102606 0
          -0.2704325211170032 -0.4205546950425136 0 -0.381647397464686 -0.3230251755025171 0
          -0.4638737665737109 0.18660420328791733 0 0.14984550819196507 -0.4770181586425109 0
          0.4463396852496675 0.22534614567644096 0 0.248098536233067 -0.43410496002580934 0
          0.11372079228553154 -0.4868958629953134 0 -0.09076917905910492 0.49169193214139295 0
          0.3133417031778425 -0.3896369811114043 0 -0.11718667065650673 -0.48607333214283976 0
          -0.4927163144954686 -0.08503313136655895 0 0.4042762445156211 -0.294212029190422 0
          -0.4114271491004407 0.28412620608293726 0 -0.4708784808029539 0.1681471269950878 0
          0.1316406254223396 0.48235956063751373 0 0.28417379805325793 0.411394278642747 0
          0.4359357551871838 0.2448673464334919 0 -0.4473742250528291 0.22328524975551028 0
          -0.3468072109857403 0.36017323388654554 0 -0.48261129610052894 -0.13071471560680384 0
          0.22512989159583066 0.44644880099519757 0 0.4305851387016039 0.2541582938432671 0
          -0.43948491010904306 -0.23843870026999883 0 0.35306935938761247 0.35403676004282514 0
          0.20946259643978282 -0.45401037509368075 0 0.49999607147222136 0.0019820475133815866 0
          -0.4763743553864113 0.15187979961199935 0 0.4670289808021935 0.1785607210191098 0
          0.4972117435660439 0.05273027650235278 0 -0.384518184120587 -0.31960251263187267 0
          0.14877447689664952 0.4773532811494316 0 -0.46705375872429594 0.17849590040532345 0
          -0.4206097585783112 0.2703468716088551 0 0.25561084101410464 0.4297244442151995 0
          0.23610816218872682 -0.4407413478990392 0 0.20037817238636177 0.45809233570438773 0
          0.2933348615231314 0.40491314996577393 0 0.051417366499606446 -0.49734922782914337 0
          <InformationKey name="L2_NORM_RANGE" location="vtkDataArray" length="2">
            <Value index="0">
              0.5
            </Value>
            <Value index="1">
              0.5
            </Value>
          </InformationKey>
        </DataArray>
        <DataArray type="Float64" Name="radius" format="ascii" RangeMin="1" RangeMax="1">
          1 1 1 1 1 1
          1 1 1 1 1 1
          1 1 1 1 1 1
          1 1 1 1 1 1
          1 1 1 1 1 1
          1 1 1 1 1 1
          1 1 1 1 1 1
          1 1 1 1 1 1
          1 1 1 1 1 1
          1 1 1 1 1 1
          1 1 1 1 1 1
          1 1 1 1 1 1
          1 1 1 1 1 1
          1 1 1 1 1 1
          1 1 1 1 1 1
          1 1 1 1 1 1
          1 1 1 1 1 1
          1 1 1 1 1 1
          1 1 1 1 1 1
          1 1 1 1 1 1
          1 1 1 1 1 1
          1 1 1 1 1 1
          1 1 1 1 1 1
          1 1 1 1 1 1
          1 1 1 1 1 1
          1 1 1 1
        </DataArray>
      </PointData>
      <CellData>
      </CellData>
      <Points>
        <DataArray type="Float32" Name="Points" NumberOfComponents="3" format="ascii" RangeMin="1.8634148851888022" RangeMax="68.25392058758497">
          -36.6110725402832 33.566314697265625 0 47.11227035522461 -27.681434631347656 0
          -19.156919479370117 4.51820182800293 0 -31.052898406982422 49.32373046875 0
          49.80870056152344 46.66573715209961 0 22.624826431274414 48.23365783691406 0
          -38.95336151123047 29.829484939575195 0 -20.31111717224121 -49.55587387084961 0
          -38.33835983276367 14.019025802612305 0 37.65809631347656 0.3929257392883301 0
          29.846145629882812 -13.878339767456055 0 -28.747888565063477 18.165470123291016 0
          -9.982297897338867 24.05998992919922 0 -2.833268642425537 -7.880739688873291 0
          -32.667633056640625 -19.589418411254883 0 29.590473175048828 -18.442174911499023 0
          37.144744873046875 -35.307281494140625 0 49.43975067138672 32.11298370361328 0
          -37.49205780029297 26.505687713623047 0 -0.918918251991272 16.237709045410156 0
          -37.464134216308594 -28.85517692565918 0 -45.09041976928711 -46.27715301513672 0
          -9.118013381958008 -4.262569427490234 0 -1.2259396314620972 29.329532623291016 0
          42.20104217529297 30.72150993347168 0 20.812278747558594 -49.566585540771484 0
          20.781482696533203 14.448966026306152 0 -4.483852386474609 27.38144302368164 0
          7.378853797912598 37.8387565612793 0 31.049510955810547 -48.18393325805664 0
          32.27232360839844 32.03596878051758 0 43.97467803955078 -8.760536193847656 0
          -7.911619186401367 8.198873519897461 0 -34.23754119873047 26.219884872436523 0
          -26.782432556152344 30.73172378540039 0 48.86156463623047 -16.694419860839844 0
          -20.095264434814453 -48.7736701965332 0 -28.45561408996582 40.77831268310547 0
          35.12240982055664 45.5191535949707 0 28.010141372680664 48.77259063720703 0
          -43.31039047241211 29.25966453552246 0 9.462306022644043 23.442506790161133 0
          19.33758544921875 17.83781623840332 0 -10.860284805297852 6.136423587799072 0
          -29.35696792602539 2.5977306365966797 0 -9.663029670715332 -14.84069538116455 0
          9.427865982055664 -14.451933860778809 0 46.53498840332031 -34.50581359863281 0
          -10.56585693359375 -11.479972839355469 0 22.56610107421875 -11.098307609558105 0
          42.98912048339844 -6.228031158447266 0 36.109439849853516 11.881622314453125 0
          -37.72843933105469 -2.7024333477020264 0 -15.991861343383789 3.0397822856903076 0
          21.46286964416504 48.88726043701172 0 22.10040283203125 41.316532135009766 0
          0.42206087708473206 5.777130603790283 0 0.36557289958000183 -3.596637010574341 0
          4.6446638107299805 -5.27237606048584 0 35.473968505859375 10.396620750427246 0
          0.01792837679386139 47.76173782348633 0 -46.861019134521484 47.65610122680664 0
          -13.636754035949707 17.844058990478516 0 -15.296521186828613 35.48896789550781 0
          -45.403175354003906 16.04523277282715 0 24.937711715698242 -36.783905029296875 0
          48.38174819946289 -40.564598083496094 0 -21.734270095825195 30.331266403198242 0
          -42.479026794433594 12.811874389648438 0 -49.308006286621094 18.020183563232422 0
          3.3870179653167725 -5.9773759841918945 0 -30.016366958618164 -36.080718994140625 0
          -11.716839790344238 26.284494400024414 0 -45.63432693481445 -24.64055824279785 0
          0.5419079065322876 32.53593444824219 0 48.287071228027344 32.257530212402344 0
          -19.65666961669922 -44.98064041137695 0 -25.11336326599121 4.300320625305176 0
          38.808990478515625 -15.667057037353516 0 -46.91642761230469 -33.65577697753906 0
          37.733482360839844 -28.98844337463379 0 -22.898223876953125 -0.8245333433151245 0
          -27.63133430480957 -0.9859743714332581 0 45.42995071411133 15.205988883972168 0
          25.675779342651367 -6.469575881958008 0 5.250756740570068 -44.59834671020508 0
          -17.607250213623047 -9.721257209777832 0 40.750972747802734 30.768186569213867 0
          -24.114702224731445 -36.77082443237305 0 -0.844679594039917 -12.04358196258545 0
          21.53912353515625 -21.336219787597656 0 12.307074546813965 30.935651779174805 0
          -18.803869247436523 -11.6638822555542 0 -15.571939468383789 31.596120834350586 0
          16.799278259277344 -12.220906257629395 0 -4.129947662353516 -19.744028091430664 0
          40.961124420166016 -1.1474947929382324 0 25.77418327331543 -39.06897735595703 0
          -10.543427467346191 37.03022766113281 0 -13.898234367370605 41.797218322753906 0
          4.331417083740234 -35.90315246582031 0 -30.049840927124023 44.91227722167969 0
          49.094112396240234 -26.008054733276367 0 -48.3486213684082 -11.252853393554688 0
          28.14103126525879 -2.1964874267578125 0 4.125088214874268 -48.3085823059082 0
          39.97835159301758 -30.476303100585938 0 38.74310302734375 -5.9294891357421875 0
          -34.99220657348633 -25.978076934814453 0 29.990135192871094 -2.674785852432251 0
          -41.117496490478516 14.487557411193848 0 13.428311347961426 8.586792945861816 0
          22.69106101989746 -14.5362548828125 0 18.027862548828125 20.864295959472656 0
          -33.6262092590332 -36.72897720336914 0 -4.941222190856934 -45.9306755065918 0
          29.673683166503906 -33.326332092285156 0 33.26454544067383 -17.332258224487305 0
          15.67533016204834 -8.242913246154785 0 27.87898826599121 -39.01791763305664 0