<?xml version="1.0"?>
<VTKFile type="PolyData" version="0.1" byte_order="LittleEndian" header_type="UInt32" compressor="vtkZLibDataCompressor">
  <PolyData>
    <Piece NumberOfPoints="154" NumberOfVerts="0" NumberOfLines="0" NumberOfStrips="0" NumberOfPolys="0">
      <PointData>
        <DataArray type="Int32" Name="id" format="ascii" RangeMin="0" RangeMax="153">
          0 1 2 3 4 5
          6 7 8 9 10 11
          12 13 14 15 16 17
          18 19 20 21 22 23
          24 25 26 27 28 29
          30 31 32 33 34 35
          36 37 38 39 40 41
          42 43 44 45 46 47
          48 49 50 51 52 53
          54 55 56 57 58 59
          60 61 62 63 64 65
          66 67 68 69 70 71
          72 73 74 75 76 77
          78 79 80 81 82 83
          84 85 86 87 88 89
          90 91 92 93 94 95
          96 97 98 99 100 101
          102 103 104 105 106 107
          108 109 110 111 112 113
          114 115 116 117 118 119
          120 121 122 123 124 125
          126 127 128 129 130 131
          132 133 134 135 136 137
          138 139 140 141 142 143
          144 145 146 147 148 149
          150 151 152 153
        </DataArray>
        <DataArray type="Float64" Name="director" NumberOfComponents="3" format="ascii" RangeMin="0.9999999999999999" RangeMax="1">
          -0.9602258602582622 -0.27922445682869607 0 0.05342580081719291 -0.9985718220574029 0
          -0.7845335638525681 -0.6200863546223127 0 -0.20564604696094413 0.9786264370889114 0
          -0.902625750543717 0.4304262474052804 0 0.21098849790663854 0.9774885440510801 0
          0.9936608953396914 -0.11241897114243168 0 0.8163935069105306 0.5774960102670195 0
          0.9025746584565043 -0.43053337374949757 0 -0.338803553218866 -0.940857137043808 0
          -0.8367640118684517 0.5475636843708808 0 -0.9999917579812961 -0.004060045501829164 0
          0.1671460320024066 -0.9859321497881335 0 -0.44361927327494194 0.8962153426375897 0
          0.7630298389001239 0.6463632608278808 0 0.9984783453366193 0.05514520735156317 0
          -0.7502413537993845 -0.661164057590298 0 -0.9185916867378975 0.39520793647904434 0
          0.9310894141595755 -0.36479103996668905 0 -0.9050712738198561 -0.4252599079458386 0
          0.7555456953500401 0.6550959488792649 0 0.7409697563680997 -0.6715383981186771 0
          -0.8440574288574049 -0.5362527918721048 0 0.580055755601339 0.8145767737873205 0
          -0.90807415113774 -0.41880942687035205 0 -0.5966047097047723 0.8025352455550375 0
          0.8473763439122882 -0.5309927794027368 0 0.9345319413840731 0.35587926398276615 0
          -0.9890568032424462 0.14753521599886998 0 -0.48029028602795293 -0.8771095947184634 0
          0.4283279985703686 0.9036233317266118 0 -0.9854558129495385 0.16993187083053052 0
          -0.9969209944600742 0.07841256790041155 0 0.2886679551680108 0.9574292724056014 0
          0.8511500202746488 -0.5249225114114129 0 -0.5194057686523247 0.854527733599494 0
          0.6922698294415688 0.7216387484364606 0 -0.782921903899299 -0.6221199983883309 0
          -0.8694709013153936 -0.4939841614523659 0 0.9231822707711785 0.38436245255457824 0
          -0.5936039091903182 0.8047573541099033 0 0.8349336361542528 -0.5503506366110953 0
          0.23964638491681026 -0.9708602423605078 0 -0.9995336652079617 -0.030536078922126605 0
          0.4878466719996 0.8729293354097539 0 -0.9492191533031443 0.31461563693253053 0
          0.5245729816864677 -0.8513654837286797 0 -0.9793218086764383 0.20230866281677026 0
          -0.6590288619543562 -0.7521176497803692 0 -0.8565266442048919 0.5161028073621636 0
          0.8253819166699164 -0.5645747883445515 0 0.988339867705537 -0.1522639350069534 0
          0.9886955883888958 0.1499367650055686 0 0.24005687086268612 0.9707588262548096 0
          -0.1892224440114182 0.9819342476369514 0 -0.9997388137551506 0.02285397714718941 0
          -0.9264017014872604 -0.37653670137386175 0 0.15434714119409976 0.9880166800237781 0
          -0.08858005263544574 -0.9960690609968275 0 0.8289161677434542 -0.5593728513733086 0
          -0.9322438261617728 -0.3618306904938529 0 -0.23257911128774406 -0.9725774812284126 0
          -0.944127022840783 -0.32958180280743615 0 0.8548164914654345 -0.5189304056602627 0
          0.4904482432612088 -0.8714703211710622 0 -0.9108093734844313 0.4128271856030049 0
          0.9004741605102846 -0.43490951501812203 0 -0.7205421902661696 -0.6934110988774488 0
          -0.635497338989469 0.7721030579769153 0 0.9949005843517985 0.1008604345442247 0
          -0.25492389017255873 0.9669611213587076 0 0.05160799155546819 0.9986674197187023 0
          0.11041488164317466 0.9938855839138244 0 0.012378264231404602 0.9999233863524832 0
          0.1971359687958586 -0.9803761573023481 0 -0.9099074583202885 0.4148113032369204 0
          -0.9077102123787524 -0.41959762909640025 0 0.7013889626329528 -0.7127787336170113 0
          -0.28724674763143626 0.9578566207816084 0 0.1234793968643306 -0.9923471361121677 0
          -0.20574366805122726 0.9786059181595145 0 0.8895924513426704 -0.456755153790451 0
          -0.6755480424290207 -0.7373159718670945 0 -0.9720850127319254 -0.23462891557089133 0
          -0.9354079522008956 0.35357030836783665 0 0.17723155910834062 0.984169179793813 0
          -0.8823234402918834 -0.47064354527762864 0 -0.01411941859643382 -0.9999003160408034 0
          0.9997944665839759 -0.02027374134350336 0 0.37986734269709294 0.9250409731207853 0
          0.5474502345370341 -0.8368382404654715 0 -0.3263832407393134 -0.9452375257915353 0
          -0.924939403786426 -0.3801145870960635 0 -0.09200088653500148 -0.995758925080149 0
          0.2286027638112651 0.9735197873581466 0 0.9998419044476619 -0.017781060442860836 0
          -0.9449666077444667 0.3271667927035309 0 0.9971060898074402 -0.07602266549468678 0
          -0.9466241465405424 -0.3223394564529599 0 0.9468132211294217 -0.3217836607016098 0
          -0.5898472773024068 0.8075148230583371 0 0.7815043270092974 -0.6238998211778436 0
          -0.7416955818639269 -0.6707366575963556 0 0.9809961484793995 0.19402720600107573 0
          -0.7250352408169874 0.6887117681392216 0 -0.8981370685301682 0.4397155968714733 0
          0.93472248744582 0.35537849043393 0 0.8168509754654502 -0.5768487530376941 0
          0.018621842932587535 -0.999826598448848 0 -0.91787924312302 -0.3968597926773532 0
          0.513727962302003 0.8579531343546871 0 0.21105060942845064 -0.9774751353665625 0
          0.10899048936444335 -0.9940427924531716 0 0.9985130359275686 -0.05451345781282064 0
          -0.14622979570369932 -0.9892506491524048 0 -0.3532119205407914 -0.9355433390217076 0
          -0.7862069027882627 -0.6179633532889206 0 -0.8688437947451013 -0.49508631604290193 0
          -0.8020210468868616 0.597295772922011 0 0.6320559837902717 -0.7749227273444184 0
          0.9877726615232143 0.15590115184739825 0 -0.234644261836774 -0.9720813085267485 0
          0.9898129055390138 -0.14237419720024916 0 -0.05376027283850605 0.9985538708874596 0
          0.5552040808442109 -0.8317141507837503 0 -0.4662613227457407 -0.8846470363435307 0
          -0.9995133326079191 -0.03119451777174036 0 0.790408907055033 -0.6125795945410427 0
          -0.1772744969415665 0.9841614464782262 0 -0.7919169080528079 0.6106288649745282 0
          0.7216314194199448 0.6922774693040037 0 0.7439642614001729 0.6682194083976424 0
          0.945024248485837 0.3270002595928313 0 -0.8193261185535293 0.5733277522116019 0
          -0.7682399436199299 0.640162002173549 0 -0.9990763977774482 0.042969191335632664 0
          0.9002515038538941 0.4353702215457577 0 0.8680296601929759 0.4965123452898898 0
          -0.7741685302675149 -0.6329795310619736 0 0.419713036943066 0.9076568551055121 0
          -0.0509919545391583 -0.9986990640689899 0 0.9991590229102078 0.041003011317695355 0
          -0.8207077881104208 0.5713481657753884 0 0.9513771603235075 0.3080284058569583 0
          0.9064277183382361 -0.42236097289894015 0 -0.7758836352146885 -0.6308760453575966 0
          -0.12665876850255384 0.9919463475215867 0 -0.9720041055158017 -0.2349638671379627 0
          -0.4903537480508777 0.8715234946761081 0 0.7921945065729937 0.6102686816112809 0
          -0.04723772379166677 -0.9988836756354477 0 0.5190085925690702 0.8547690219231584 0
          0.250089509605677 0.9682227208577538 0 -0.3566343701091081 -0.9342440398829845 0
          <InformationKey name="L2_NORM_RANGE" location="vtkDataArray" length="2">
            <Value index="0">
              1
            </Value>
            <Value index="1">
              1
            </Value>
          </InformationKey>
        </DataArray>
        <DataArray type="Float64" Name="velocity" NumberOfComponents="3" format="ascii" RangeMin="2.98391528750295" RangeMax="65.61664053985334">
          20.472372037415383 -30.489259884928693 0 -7.778161120144524 43.605506408926914 0
          -35.778279556590725 14.318100471258902 0 -2.7267860528004704 -6.306708942777526 0
          -25.56803597993237 0.5919415230237348 0 40.69440930810454 -42.34960265147567 0
          21.390392053252754 11.720491675449018 0 -31.091580543867785 -10.301819378431787 0
          -22.233594277397 35.80993014386058 0 40.8936574712134 11.727908496204755 0
          -31.918129728714472 1.502371966558826 0 32.46317064138093 -14.067556233339687 0
          31.61170207931397 -20.66117562390716 0 -32.788218903188394 -0.7210412736466054 0
          -30.467523066969363 36.43074923190564 0 -29.58028331655805 11.627227611362315 0
          37.80505508071815 -10.753091333426255 0 44.65772551607054 -33.330173144632525 0
          47.18774005931614 6.396489460552942 0 9.836891189866492 -36.87781496106794 0
          6.677739541459459 5.438027088135769 0 -18.951003944933063 -37.93510690561732 0
          23.77908201111339 -25.727634747998636 0 32.285914726045576 -31.45240287607238 0
          -18.732306147503376 38.172541468590836 0 17.42129460906331 23.929755673071398 0
          -43.74567596165927 -36.843843838172035 0 -41.00470913383489 -49.1685554695042 0
          -4.3489588147394045 13.430332075080756 0 2.9762992276979077 -0.21305715242312573 0
          -16.420210149222868 -24.717665071237764 0 -26.63245586108499 -32.68369682188443 0
          9.59810303037343 22.68931438280859 0 37.757309281314306 20.71597266757422 0
          -26.523439665569285 -2.200425364398683 0 -48.17882370239545 24.733119867345934 0
          15.472358145094617 -42.19330576503555 0 -2.7230899171649696 49.647506705142575 0
          3.209752212846098 39.943600631846664 0 27.290092728339346 -29.624030405099575 0
          40.710862227344634 -12.518743865476708 0 34.808888796398136 -17.330075407408792 0
          -17.326333983387784 15.921061981020685 0 8.676498234140595 -45.101679767889145 0
          26.99656655139428 -0.8247828969564566 0 -1.181598492863479 -7.087342925864128 0
          -10.527228461045638 27.645380145270124 0 47.47543864880045 24.850515939083976 0
          13.45020038299144 -42.781974126121774 0 13.33632968921519 2.89206325620421 0
          -20.383234879262602 -17.467213088655853 0 13.111992425538233 49.45054225750374 0
          1.6047826830209004 22.445391370448775 0 -25.442525168919026 -16.766088433362327 0
          24.860911549332883 18.296648546241826 0 18.127137052491975 -42.11576276898946 0
          -4.106371249565804 19.81468592825003 0 -43.2115168522386 -43.085994704941484 0
          2.7042817825837204 -23.795120132132308 0 -1.6624837545658195 -36.91945356486498 0
          -40.55592314206473 -37.96183180819797 0 46.98372058379586 25.62816454897687 0
          -23.182362140209666 22.4905983535036 0 -8.42374893276238 -2.5281598168396826 0
          -44.45585735866184 11.374414308737222 0 -0.9380815156004232 40.44748670579848 0
          43.5214270198436 41.82766196839604 0 -19.617472876146607 29.010177679462174 0
          -27.377259211045168 -5.104813753149479 0 1.0108912986547693 -26.93680745999526 0
          21.18807799653547 48.4452609761332 0 15.521324819791857 -22.733301715898534 0
          -3.0984436752635744 -49.699879474370995 0 -5.357606698271908 47.09441502974741 0
          -19.533649987483585 -28.48909553641595 0 -25.241492794096537 30.645102659141713 0
          -1.3628901407151872 -9.249808436218693 0 -28.437070584076316 4.0252086974848424 0
          22.302423751473526 -21.630608392707323 0 4.286209731170565 25.592468486596516 0
          -16.80227135673981 30.176297340482108 0 35.70724318896097 -48.51082997011254 0
          38.494266527440914 9.308694076898924 0 -41.37827709570729 42.48759424258512 0
          41.371957205314274 48.07567751376408 0 40.00221093710812 44.971458396046486 0
          43.45219546574209 -49.16757290067578 0 27.77940311086799 -47.40411222574361 0
          8.787704962513757 14.978077069606684 0 -17.176354508003442 -38.89206379839693 0
          -37.572734230027905 47.39150589914381 0 3.322947059262674 16.230028184641725 0
          20.82576325094061 -43.12614201683975 0 -29.404442159877867 -6.6570323329381935 0
          -48.88074135310182 -43.07374742736768 0 -15.693819004659524 -18.776991949103287 0
          49.2742614956165 -23.093566379026992 0 35.70662412955289 -14.438908494432013 0
          24.676827977366614 34.48562696853686 0 -28.28613766609157 46.49521791482232 0
          21.219265309149932 48.266786794162286 0 25.989900495501132 -30.673962513745963 0
          -14.741048879365302 -30.369965831724773 0 33.206792723445574 45.25947670903301 0
          26.73700517552618 36.1968809297727 0 -4.433626259916984 -16.731616061562868 0
          33.82599634129042 5.430878965379037 0 -37.91344272052366 -28.781627030961573 0
          -0.8760744559602713 -9.034520229977083 0 25.951148963832622 -14.29357740625877 0
          27.17860558051683 48.15404052238152 0 34.61617221348607 33.462162550860555 0
          -13.28055184508198 -44.93740558320786 0 47.55616001461492 34.25892934866374 0
          36.946038841117556 -42.45015674570037 0 -46.76239316488481 11.393180618063838 0
          23.568028568935404 11.552780427737098 0 16.263007945057282 45.12644264060411 0
          -23.411248530157515 41.93857265065735 0 -38.160345232049345 -18.69342940760771 0
          37.21153998486223 -26.635630373860984 0 30.80584946405935 5.653176675427417 0
          44.35923105765637 0.370346282237378 0 16.64168251311186 -34.7034267378138 0
          47.322877480901255 13.376690736606477 0 -32.1350217035443 -42.58571958176201 0
          -0.5025219679409361 28.59799073613067 0 -3.5320261053794297 38.30316610148137 0
          14.736889949280638 40.32409694969634 0 -49.402638529229115 19.356180838194604 0
          8.508964450503598 -39.46387075781778 0 49.03198966734128 -27.000797471280585 0
          -16.70921662991016 18.938285128010065 0 46.14207459237997 -27.3400906744995 0
          42.424140585792586 37.62461911345025 0 -6.825547086494495 -2.911259141055119 0
          6.210247997996007 33.76154121673389 0 -35.16911208657487 13.927818279591207 0
          49.5593687100304 13.93941034113417 0 -6.0481675260535965 -47.161165000275155 0
          -41.68490984500472 3.0367185203014984 0 28.200151364646487 23.664522522360798 0
          -30.983903256438072 -23.817273645282434 0 -4.775523168997552 -3.9973115200368454 0
          17.36371431475763 -32.304692769073746 0 -31.21691646176371 -40.35131875297581 0
          -17.61253928181918 -32.96735050248542 0 -47.52659271635095 33.064298464373394 0
          -25.51716157275273 -35.79649925661745 0 -34.4558032257712 -19.698927528483058 0
          -46.64276824331557 -9.071061809886274 0 28.312364537561464 -5.662808823633235 0
          -48.25117889494449 -21.421563451189467 0 45.139670111270334 -32.86849758057289 0
          <InformationKey name="L2_NORM_RANGE" location="vtkDataArray" length="2">
            <Value index="0">
              2.9839152875
            </Value>
            <Value index="1">
              65.61664054
            </Value>
          </InformationKey>
        </DataArray>
        <DataArray type="Float64" Name="force" NumberOfComponents="3" format="ascii" RangeMin="0.49999999999999994" RangeMax="0.5">
          -0.4801129301291311 -0.13961222841434803 0 0.026712900408596457 -0.49928591102870146 0
          -0.39226678192628406 -0.3100431773111563 0 -0.10282302348047206 0.4893132185444557 0
          -0.4513128752718585 0.2152131237026402 0 0.10549424895331927 0.48874427202554005 0
          0.4968304476698457 -0.05620948557121584 0 0.4081967534552653 0.28874800513350973 0
          0.45128732922825215 -0.21526668687474879 0 -0.169401776609433 -0.470428568521904 0
          -0.41838200593422586 0.2737818421854404 0 -0.49999587899064807 -0.002030022750914582 0
          0.0835730160012033 -0.49296607489406674 0 -0.22180963663747097 0.44810767131879486 0
          0.38151491945006194 0.3231816304139404 0 0.49923917266830964 0.027572603675781585 0
          -0.37512067689969225 -0.330582028795149 0 -0.45929584336894874 0.19760396823952217 0
          0.46554470707978773 -0.18239551998334452 0 -0.45253563690992804 -0.2126299539729193 0
          0.37777284767502006 0.32754797443963246 0 0.37048487818404985 -0.33576919905933855 0
          -0.42202871442870243 -0.2681263959360524 0 0.2900278778006695 0.40728838689366026 0
          -0.45403707556887 -0.20940471343517603 0 -0.29830235485238615 0.40126762277751876 0
          0.4236881719561441 -0.2654963897013684 0 0.46726597069203657 0.17793963199138307 0
          -0.4945284016212231 0.07376760799943499 0 -0.24014514301397646 -0.4385547973592317 0
          0.2141639992851843 0.4518116658633059 0 -0.4927279064747693 0.08496593541526526 0
          -0.4984604972300371 0.03920628395020578 0 0.1443339775840054 0.4787146362028007 0
          0.4255750101373244 -0.26246125570570644 0 -0.25970288432616234 0.427263866799747 0
          0.3461349147207844 0.3608193742182303 0 -0.3914609519496495 -0.31105999919416544 0
          -0.4347354506576968 -0.24699208072618295 0 0.46159113538558927 0.19218122627728912 0
          -0.2968019545951591 0.4023786770549517 0 0.4174668180771264 -0.27517531830554764 0
          0.11982319245840513 -0.4854301211802539 0 -0.49976683260398086 -0.015268039461063303 0
          0.2439233359998 0.43646466770487696 0 -0.47460957665157216 0.15730781846626526 0
          0.26228649084323385 -0.42568274186433985 0 -0.4896609043382191 0.10115433140838513 0
          -0.3295144309771781 -0.3760588248901846 0 -0.42826332210244594 0.2580514036810818 0
          0.4126909583349582 -0.2822873941722758 0 0.4941699338527685 -0.0761319675034767 0
          0.4943477941944479 0.0749683825027843 0 0.12002843543134306 0.4853794131274048 0
          -0.0946112220057091 0.4909671238184757 0 -0.4998694068775753 0.011426988573594705 0
          -0.4632008507436302 -0.18826835068693087 0 0.07717357059704988 0.49400834001188904 0
          -0.04429002631772287 -0.49803453049841373 0 0.4144580838717271 -0.2796864256866543 0
          -0.4661219130808864 -0.18091534524692646 0 -0.11628955564387203 -0.4862887406142063 0
          -0.4720635114203915 -0.16479090140371808 0 0.42740824573271724 -0.25946520283013136 0
          0.2452241216306044 -0.4357351605855311 0 -0.4554046867422156 0.20641359280150245 0
          0.4502370802551423 -0.21745475750906101 0 -0.3602710951330848 -0.3467055494387244 0
          -0.3177486694947345 0.3860515289884576 0 0.49745029217589926 0.05043021727211235 0
          -0.12746194508627937 0.4834805606793538 0 0.025803995777734096 0.49933370985935116 0
          0.05520744082158733 0.4969427919569122 0 0.006189132115702301 0.4999616931762416 0
          0.0985679843979293 -0.49018807865117403 0 -0.45495372916014426 0.2074056516184602 0
          -0.4538551061893762 -0.20979881454820012 0 0.3506944813164764 -0.35638936680850564 0
          -0.14362337381571813 0.4789283103908042 0 0.0617396984321653 -0.49617356805608387 0
          -0.10287183402561363 0.48930295907975724 0 0.4447962256713352 -0.2283775768952255 0
          -0.33777402121451033 -0.36865798593354726 0 -0.4860425063659627 -0.11731445778544566 0
          -0.4677039761004478 0.17678515418391832 0 0.08861577955417031 0.4920845898969065 0
          -0.4411617201459417 -0.23532177263881432 0 -0.00705970929821691 -0.4999501580204017 0
          0.49989723329198793 -0.01013687067175168 0 0.18993367134854647 0.46252048656039263 0
          0.27372511726851706 -0.41841912023273575 0 -0.1631916203696567 -0.47261876289576765 0
          -0.462469701893213 -0.19005729354803175 0 -0.04600044326750074 -0.4978794625400745 0
          0.11430138190563255 0.4867598936790733 0 0.49992095222383093 -0.008890530221430418 0
          -0.47248330387223336 0.16358339635176544 0 0.4985530449037201 -0.03801133274734339 0
          -0.4733120732702712 -0.16116972822647996 0 0.47340661056471084 -0.1608918303508049 0
          -0.2949236386512034 0.40375741152916855 0 0.3907521635046487 -0.3119499105889218 0
          -0.37084779093196346 -0.3353683287981778 0 0.49049807423969977 0.09701360300053787 0
          -0.3625176204084937 0.3443558840696108 0 -0.4490685342650841 0.21985779843573666 0
          0.46736124372291 0.177689245216965 0 0.4084254877327251 -0.28842437651884706 0
          0.009310921466293767 -0.499913299224424 0 -0.45893962156151 -0.1984298963386766 0
          0.2568639811510015 0.42897656717734356 0 0.10552530471422532 -0.48873756768328125 0
          0.05449524468222167 -0.4970213962265858 0 0.4992565179637843 -0.02725672890641032 0
          -0.07311489785184966 -0.4946253245762024 0 -0.1766059602703957 -0.4677716695108538 0
          -0.39310345139413133 -0.3089816766444603 0 -0.43442189737255066 -0.24754315802145097 0
          -0.4010105234434308 0.2986478864610055 0 0.31602799189513586 -0.3874613636722092 0
          0.49388633076160715 0.07795057592369913 0 -0.117322130918387 -0.4860406542633742 0
          0.4949064527695069 -0.07118709860012458 0 -0.026880136419253024 0.4992769354437298 0
          0.27760204042210546 -0.41585707539187516 0 -0.23313066137287036 -0.44232351817176535 0
          -0.49975666630395954 -0.01559725888587018 0 0.3952044535275165 -0.30628979727052136 0
          -0.08863724847078325 0.4920807232391131 0 -0.39595845402640395 0.3053144324872641 0
          0.3608157097099724 0.34613873465200184 0 0.37198213070008646 0.3341097041988212 0
          0.4725121242429185 0.16350012979641565 0 -0.40966305927676466 0.28666387610580096 0
          -0.38411997180996493 0.3200810010867745 0 -0.4995381988887241 0.021484595667816332 0
          0.45012575192694704 0.21768511077287886 0 0.43401483009648795 0.2482561726449449 0
          -0.38708426513375743 -0.3164897655309868 0 0.209856518471533 0.45382842755275604 0
          -0.02549597726957915 -0.49934953203449495 0 0.4995795114551039 0.020501505658847678 0
          -0.4103538940552104 0.2856740828876942 0 0.47568858016175375 0.15401420292847914 0
          0.45321385916911805 -0.21118048644947007 0 -0.38794181760734425 -0.3154380226787983 0
          -0.06332938425127692 0.49597317376079336 0 -0.48600205275790087 -0.11748193356898134 0
          -0.24517687402543886 0.43576174733805406 0 0.39609725328649686 0.30513434080564045 0
          -0.023618861895833385 -0.49944183781772383 0 0.2595042962845351 0.4273845109615792 0
          0.1250447548028385 0.4841113604288769 0 -0.17831718505455404 -0.4671220199414923 0
          <InformationKey name="L2_NORM_RANGE" location="vtkDataArray" length="2">
            <Value index="0">
              0.5
            </Value>
            <Value index="1">
              0.5
            </Value>
          </InformationKey>
        </DataArray>
        <DataArray type="Float64" Name="radius" format="ascii" RangeMin="1" RangeMax="1">
          1 1 1 1 1 1
          1 1 1 1 1 1
          1 1 1 1 1 1
          1 1 1 1 1 1
          1 1 1 1 1 1
          1 1 1 1 1 1
          1 1 1 1 1 1
          1 1 1 1 1 1
          1 1 1 1 1 1
          1 1 1 1 1 1
          1 1 1 1 1 1
          1 1 1 1 1 1
          1 1 1 1 1 1
          1 1 1 1 1 1
          1 1 1 1 1 1
          1 1 1 1 1 1
          1 1 1 1 1 1
          1 1 1 1 1 1
          1 1 1 1 1 1
          1 1 1 1 1 1
          1 1 1 1 1 1
          1 1 1 1 1 1
          1 1 1 1 1 1
          1 1 1 1 1 1
          1 1 1 1 1 1
          1 1 1 1
        </DataArray>
      </PointData>
      <CellData>
      </CellData>
      <Points>
        <DataArray type="Float32" Name="Points" NumberOfComponents="3" format="ascii" RangeMin="2.980403693977513" RangeMax="67.1772251638367">
          -37.71929931640625 33.722686767578125 0 47.193016052246094 -27.842147827148438 0
          -19.352537155151367 3.923369884490967 0 -31.219701766967773 49.47846603393555 0
          48.45148849487305 46.53206253051758 0 22.62653160095215 48.55586242675781 0
          -39.568729400634766 29.809978485107422 0 -20.175174713134766 -50.439212799072266 0
          -38.82050323486328 13.733332633972168 0 37.48438262939453 0.9578944444656372 0
          29.971263885498047 -13.26203441619873 0 -28.50807762145996 18.064716339111328 0
          -10.892843246459961 23.847463607788086 0 -3.069676637649536 -7.363166332244873 0
          -32.37919235229492 -19.792715072631836 0 29.28028106689453 -18.78725242614746 0
          36.956512451171875 -35.610626220703125 0 49.41914367675781 31.46915626525879 0
          -37.693546295166016 26.25919532775879 0 -1.502551555633545 15.551440238952637 0
          -38.302024841308594 -28.98723030090332 0 -45.0504150390625 -46.26518249511719 0
          -8.958053588867188 -4.033177852630615 0 -0.9773661494255066 29.994104385375977 0
          41.81797409057617 30.45296287536621 0 21.319015502929688 -49.305843353271484 0
          20.37289810180664 14.708805084228516 0 -4.226291656494141 27.15833282470703 0
          7.945842266082764 37.79770278930664 0 30.904592514038086 -47.643924713134766 0
          32.77124786376953 32.628787994384766 0 43.914817810058594 -8.83314323425293 0
          -7.447223663330078 7.841543674468994 0 -34.22892761230469 26.91084861755371 0
          -26.464374542236328 31.164695739746094 0 49.71427536010742 -17.14185905456543 0
          -20.458953857421875 -48.6724853515625 0 -28.862211227416992 40.54124450683594 0
          34.850799560546875 45.591217041015625 0 27.751075744628906 49.082393646240234 0
          -43.306175231933594 29.692556381225586 0 9.296714782714844 23.712858200073242 0
          19.12046241760254 17.95001983642578 0 -10.671867370605469 5.816707611083984 0
          -29.47806167602539 2.278027057647705 0 -9.628750801086426 -14.756368637084961 0
          9.744402885437012 -13.848580360412598 0 46.92072296142578 -34.62702178955078 0
          -10.695853233337402 -11.4649658203125 0 22.119571685791016 -11.701191902160645 0
          42.69916915893555 -6.210328102111816 0 35.15254592895508 12.006478309631348 0
          -37.41096115112305 -2.4909796714782715 0 -15.79079532623291 3.3126649856567383 0
          21.606430053710938 48.625587463378906 0 22.029077529907227 42.07292175292969 0
          0.7659443616867065 5.9632487297058105 0 0.3055267632007599 -3.8354604244232178 0
          4.725456714630127 -5.659732341766357 0 34.94517135620117 10.837355613708496 0
          0.547974169254303 47.48125457763672 0 -46.924564361572266 47.86783981323242 0
          -13.234353065490723 17.911548614501953 0 -15.44180679321289 35.47079849243164 0
          -45.52988815307617 15.610647201538086 0 24.696168899536133 -35.982627868652344 0
          48.119022369384766 -40.0951042175293 0 -22.355775833129883 30.188892364501953 0
          -42.457637786865234 12.764062881469727 0 -49.22415542602539 18.591405868530273 0
          3.062316417694092 -5.978503704071045 0 -29.795686721801758 -35.76398849487305 0
          -11.227987289428711 26.568836212158203 0 -46.659332275390625 -24.68004608154297 0
          1.7254259586334229 32.87644577026367 0 48.011871337890625 31.905963897705078 0
          -19.400012969970703 -44.06475830078125 0 -24.426708221435547 3.3506596088409424 0
          39.154510498046875 -15.287456512451172 0 -47.48229217529297 -33.54441452026367 0
          38.06488800048828 -29.504398345947266 0 -22.982187271118164 -0.928312361240387 0
          -27.891374588012695 -0.14105087518692017 0 44.81595230102539 15.077363967895508 0
          26.448213577270508 -6.649052619934082 0 4.612321853637695 -44.58356475830078 0
          -17.234270095825195 -9.199773788452148 0 40.45206832885742 31.33124351501465 0
          -24.761432647705078 -36.55404281616211 0 -1.5322848558425903 -11.69927978515625 0
          21.242258071899414 -20.9439697265625 0 12.07457160949707 31.44741439819336 0
          -18.632598876953125 -11.819990158081055 0 -15.284920692443848 31.510053634643555 0
          17.408262252807617 -12.12862491607666 0 -4.284376621246338 -19.487030029296875 0
          40.7336311340332 -1.4887642860412598 0 25.624723434448242 -39.028724670410156 0
          -10.414844512939453 37.495887756347656 0 -13.197322845458984 41.94987106323242 0
          5.15557861328125 -36.241878509521484 0 -30.045026779174805 45.189273834228516 0
          49.68635940551758 -26.531457901000977 0 -48.44329833984375 -11.353336334228516 0
          28.196428298950195 -2.7063632011413574 0 3.9718592166900635 -48.280662536621094 0
          39.768089294433594 -29.928205490112305 0 38.08009338378906 -5.699953556060791 0
          -34.761783599853516 -25.818769454956055 0 29.309057235717773 -2.649756908416748 0
          -41.03998565673828 14.503167152404785 0 13.820571899414062 7.885064601898193 0
          22.314685821533203 -14.627754211425781 0 18.63925552368164 21.104839324951172 0
          -33.80088806152344 -36.516357421875 0 -5.032851696014404 -45.951812744140625 0
          29.744600296020508 -33.021270751953125 0 32.9814567565918 -16.722429275512695 0
          15.761917114257812 -7.988918781280518 0 27.84781837463379 -38.63710403442383 0